# epsilon and Z* of atoms 1 7 13 19 25 31 37 43 45 47 49 55 61 67 73 79 85 91 93 99 101 107
   2.33594510   -0.00000000   -0.00000000   -0.00000000    2.33594510   -0.00000000   -0.00000000   -0.00000000    2.41457969 
   2.36423118   -0.01959823   -0.04990583    0.01090634    2.35370418   -0.02468925    0.00175880   -0.00836637    2.81982769 
  -1.21680441    0.04725454   -0.24487467   -0.36138960   -1.44906788   -1.01935947   -0.58450929   -0.81686526   -1.72031414 
  -0.88124715    0.00048215    0.00919512    0.45560830   -1.53744195   -0.97605214    0.46082666   -0.89669160   -1.61102702 
  -1.41134512    0.15553040    1.06268363   -0.23063548   -1.12820918    0.33825220    0.94768118   -0.09923742   -1.79793020 
  -1.20218196   -0.64383276    0.77248214   -0.19733429   -1.29711268    0.45224417    0.56277286    0.85493812   -1.56368341 
  -1.18690932    0.65143623   -0.79382965    0.18296762   -1.28298394    0.46471617   -0.55641891    0.85886979   -1.59790034 
  -1.43385135   -0.16396037   -1.04287691    0.21203023   -1.13309430    0.31285474   -0.95879708   -0.10507023   -1.77498225 
  -0.96746597    0.05006695    0.00000000   -0.05006695   -0.96746597    0.00000000    0.00000000    0.00000000   -0.43610706 
  -0.97229260    0.05215034    0.00000000   -0.05215034   -0.97229260    0.00000000    0.00000000    0.00000000   -0.43231917 
  -0.97263093   -0.04560733    0.00000000    0.04560733   -0.97263093    0.00000000    0.00000000    0.00000000   -0.43650947 
   0.96181688    0.03287053    0.17533647   -0.06381951    1.46398921    1.69358604    0.02264477    1.44958662    2.01005291 
   1.21942949    0.34403417   -1.55423502    0.21614757    1.16928617   -0.67956540   -1.24834269   -0.66501072    2.04721448 
   1.23263780   -0.31908731    1.55524342   -0.18628681    1.14529558   -0.67650936    1.24190597   -0.68231433    2.05727995 
  -0.09922532   -0.00908068   -0.05116183    0.00720961    0.20592452   -0.00337727   -0.03576311   -0.03981235    0.05882442 
   0.14473272    0.09867076    0.04134841    0.12014511   -0.05623233   -0.06364861    0.05351569   -0.02732873    0.05427245 
   0.12719863   -0.11693020   -0.03904502   -0.13177534   -0.02918203   -0.06790449   -0.05747582   -0.03109478    0.05458107 
   1.12817825   -0.19838167    0.30932430   -0.12518964    0.27303197   -0.02455347    0.33404879   -0.05782143    0.36057450 
   0.34451392    0.02536479    0.00000000   -0.02536479    0.34451392    0.00000000    0.00000000    0.00000000    0.31046974 
   0.35081111   -0.32022751   -0.13688459   -0.23590548    1.05206903    0.27313643   -0.10974607    0.31578095    0.36308386 
   0.34496382    0.03153716    0.00000000   -0.03153716    0.34496382    0.00000000    0.00000000    0.00000000    0.31392499 
   0.35286328    0.31949699    0.13694880    0.24325040    1.05275887    0.27939862    0.11532967    0.31684023    0.36342036 
   0.34353778   -0.02762253    0.00000000    0.02762253    0.34353778    0.00000000    0.00000000    0.00000000    0.31150531 