 108  108
1 1
     7.200797939768864    -0.159645183157063     0.194644497924372
    -0.159640962641065     7.002360148413576     0.330188972802323
     0.194647542371648     0.330192322952616     7.331714356923031
1 2
    -0.387035236737482    -0.410877469576271    -0.142647788713284
    -0.410877505861621     0.074428480102672     0.230236673556490
     0.142654403932120    -0.230248495663257    -0.496008117038859
1 3
     0.310957425997201    -0.010228042577499     0.256926734304235
    -0.008761183863897    -0.629652364580186    -0.013242909325019
    -0.283128373874804     0.009122142600086    -0.500873619196698
1 4
    -0.386277633326120     0.412777123061693    -0.149455852637458
     0.411310229956411     0.067582753516902    -0.240622032962183
     0.139939925344563     0.215897037388720    -0.500872356949555
1 5
    -0.195661175091967    -0.060736115401718    -0.005530795489120
     0.062771276940671    -0.195611650493503    -0.004892515105958
     0.007690323982312    -0.005200896406749     0.121505866326365
1 6
    -0.196505296775560     0.061223302617731    -0.008349546874860
    -0.062284063245939    -0.194767624406052    -0.004059515694909
    -0.001471419367572     0.007235915028569     0.121505909155509
1 7
    -1.592804916446939     0.421553878254748     0.156683726116026
     0.901980028808915    -0.964204008830840    -0.116152977953384
     0.746891820718324    -0.148593378317026    -0.443246923563135
1 8
     0.079437321892145     0.264760691813377    -0.105268733732837
     0.127579638513353     0.098235861695117    -0.122034118108849
     0.045360270377087     0.105287747600870     0.056326459221156
1 9
    -0.040857299112820     0.050790649113954    -0.003176614893835
     0.055660676387571     0.232639746457929     0.078947417072571
     0.013063350064850    -0.069760584869419     0.011490221388738
1 10
     0.172005217577637    -0.499859439406335    -0.409081971118404
    -0.766036626137402     0.636587925374432     1.155302355743397
    -0.396015282721602     0.622190918122020     1.143692401890173
1 11
     0.194710656918867    -0.141531759041221    -0.156957787522999
    -0.109345707017393     0.073183579533152     0.079515953228247
     0.011889345071618    -0.015971241602205    -0.040667015492733
1 12
     0.203882367841078    -0.066490945035442     0.095322018002510
    -0.000892499613374    -0.072017914234610     0.107355711621138
    -0.022454949250809     0.011934455496495    -0.055532920889482
1 13
    -0.073040002128374    -0.582728385809559    -0.726894733058442
    -0.264824976197722     0.904414750116664     0.847673516385391
    -0.311279133434279     0.729717963837873     1.049038338385660
1 14
    -0.000597226844039     0.128857968633688    -0.113462323652835
     0.021392410789178     0.163241413339615    -0.056258246036377
    -0.024951722970994     0.032625322951084    -0.065426534390018
1 15
    -0.001850612436946     0.018738182560381     0.015467677867150
     0.027895149503985     0.225468153260987     0.120470389439014
     0.009605927575366    -0.050399759463919    -0.058782673283571
1 16
    -0.450055546857822     0.220910209378317    -0.104079053516583
    -0.424078423762035    -1.969031854336314    -0.240851362900342
    -0.467527993436585    -0.745752636080087    -0.451664118401223
1 17
     0.186039411713802    -0.026836747471565    -0.102186209081769
    -0.089277852757584    -0.048445706782516     0.064499750217128
     0.042250257605831    -0.047478994625953     0.025437743466742
1 18
     0.265591943060837     0.025580812300491     0.139276646338317
     0.195670840769765    -0.063209510687573     0.062940943103058
    -0.115177933471033     0.024438637680798     0.063263661951322
1 19
    -0.531663538204096    -0.190190781521858    -0.075169320949541
     0.239760060723889    -1.807235835180504    -0.060714438213736
    -0.295975256461795     0.521023514732419    -0.270546874380684
1 20
     1.012030654928184     0.259718318352302     1.282779342519636
    -0.009666890119895    -0.266789095238862    -0.183793809004255
     0.644519853454826     0.054295646675251     1.161184655429662
1 21
    -0.076709079329034    -0.037330882117826    -0.035027657977948
    -0.160413223467437     0.222921521365129     0.169399710884603
     0.065241742165818    -0.095980166589591     0.042900413627994
1 22
     0.118387451449717    -0.144595437360459     0.078872621950320
    -0.142689398740209     0.075832853873786    -0.039142061942769
    -0.060535000092111     0.024859404053328     0.015014693847854
1 23
    -0.006984339860641     0.000302511333227     0.006634567145196
     0.026431958009868     0.245145456139142    -0.171595656768452
     0.006534220428075     0.014700750284051    -0.043960559082207
1 24
    -0.027045510543876    -0.132135529015413    -0.143691312117473
    -0.062635695046939     0.160810701859712     0.047886518268242
     0.002879532326073    -0.024205290733763    -0.051083534801137
1 25
     0.289357274191175     0.457734225791120    -0.320175337128802
     0.785018680160801     0.567258260235908    -1.049282225532498
    -0.481922344169961    -0.675930526963396     0.999237969223433
1 26
    -1.455978764060279     1.048721039599691    -0.179873180691048
     0.370942725520511    -0.898906574881658     0.233973497484331
    -0.400681310071905     0.785670974150750    -0.469851073681838
1 27
     0.052522642025606    -0.064092871088469     0.018829150919508
    -0.164848722456666     0.105370590915066     0.115381581563622
     0.039658459803201     0.005445898392402    -0.066736766706696
1 28
     0.160367329278965    -0.122602162678126     0.095806767026812
    -0.114740310245033     0.086905968505029    -0.072470219939558
    -0.047952775575845     0.019939398145425    -0.053714285427864
1 29
    -0.040152618877552    -0.038602067617454    -0.003496077940103
    -0.104343075620737     0.181469774296095    -0.109945316145311
     0.020365332442141     0.063956788228130     0.019712818583970
1 30
     0.118004859992671    -0.303688289709064    -0.094425414467872
    -0.116542291249338     0.102454649041885     0.096247999654181
     0.032375152734776    -0.106514332404708     0.078004417247075
1 31
    -1.518334310418261    -1.050971850962226    -0.179858437446012
    -0.382045970014007    -0.877174782968944    -0.229406146326169
    -0.420184653920789    -0.760401190989742    -0.464024415140704
1 32
     0.185381266709276     0.023587916389726    -0.096843331145714
     0.089463175668859    -0.047798097213934    -0.059685317835009
     0.041101723119698     0.047347904349179     0.023539188358803
1 33
    -0.058106466431907     0.581953916878958    -0.745156962557723
     0.257980229876468     0.883550861909723    -0.808893492511035
    -0.336185505302490    -0.753265675547277     1.034995119582130
1 34
     0.276548529060052    -0.022719434795345     0.133296242911728
    -0.211398479074597    -0.064022732275975    -0.044074980290930
    -0.120524319651714    -0.024539477247603     0.071558415805898
1 35
     0.157091820423751     0.118901388615343     0.095666722091258
     0.111765979684010     0.082064283650531     0.072050988670637
    -0.051006698980045    -0.019152193320145    -0.055999900130027
1 36
     0.056879002721330     0.062563237145732     0.014049826476571
     0.162846145274715     0.103341627020741    -0.119566938992662
     0.042048400832108    -0.007689844370411    -0.067312398653950
1 37
     1.029671101308813    -0.244125858456136     1.294255122750791
     0.000150701965934    -0.256581062341235     0.176813000436513
     0.646126103521448    -0.034292553643751     1.136183855571408
1 38
     0.177556197919551     0.134026558417035    -0.153388770061439
     0.103055275225026     0.066937669969852    -0.079122283912238
     0.008999957250492     0.012516761435264    -0.040184794589139
1 39
    -1.528489760883987    -0.338479548061183     0.018009812246064
    -0.783403092392982    -0.862473634753374    -0.033204107611337
     0.638093091152477     0.031769569527968    -0.296149029308130
1 40
     0.199610179292480     0.063613776647056     0.104456333018035
    -0.004450708472757    -0.068210542241489    -0.105533654312583
    -0.025184972857289    -0.011418966992402    -0.056250446513196
1 41
     0.120598369355764     0.143810743633519     0.073717951830056
     0.144868873094717     0.070985700622956     0.034647271161969
    -0.064829477797754    -0.023873878298871     0.013905118523639
1 42
    -0.073916194646080     0.042632993257268    -0.042588327432626
     0.164590888857027     0.233088335071634    -0.165159455148060
     0.068603666313984     0.091094271667298     0.045302014223667
1 43
     0.174960572596829    -0.169431280913915    -0.058697484682763
    -0.319534931137409     0.024768376338447    -0.072145138494657
    -0.214385929632741    -0.006169718749912    -0.132985578806960
1 44
    -0.137846911214708    -0.041012062515349    -0.043045745400028
     0.039925846999962     0.196157205535337     0.005569753758950
     0.083967973995030     0.050422644340966     0.074934323848959
1 45
    -0.142785695756603     0.128328208940609     0.084477542540246
    -0.022507024360978     0.347435677873903    -0.005859092730454
     0.107821448889777    -0.186730784674511    -0.129726838033178
1 46
     0.108400863981147    -0.185585187296039     0.031249883893013
    -0.102022819164597    -0.058393074592599     0.034350983106005
     0.001529287684911    -0.096072448055068     0.072484442960898
1 47
     0.112738986566581     0.186459642655471     0.029947552521762
     0.102989507667057    -0.059080494594185    -0.035364326955279
     0.001184199850387     0.093698801210811     0.073401487753086
1 48
     0.179655819153397     0.164955714433713    -0.054141805113647
     0.311654432979794     0.019816983554115     0.071595524010207
    -0.216821328930945     0.003456259350408    -0.131606159166765
1 49
     0.852793255492365     0.678738032857620     1.046819173242300
    -0.351372104040994    -1.306230331355220    -1.623853730250307
    -0.094081856372538    -1.338973650375338    -1.755026764423079
1 50
    -0.106047344757550    -0.166445487442519     0.207948010712301
    -0.071801392371488    -0.118587857502822     0.119294664462143
     0.003447648120374    -0.079973933623212     0.094751942230589
1 51
     0.033463919886942    -0.053721923933851    -0.003436637377156
    -0.057241024715399    -0.203377660589998    -0.163501704869782
    -0.026532978728175     0.089136042850703     0.024656881128782
1 52
    -0.616214611742722     0.602923515404848     0.953308828734515
     1.746530822577961     0.040075220413222    -1.702761253140282
     1.339807418353389    -0.611144923845160    -1.815179358053895
1 53
    -0.190461331423137     0.041950179271363     0.200953776729892
     0.099719894480367     0.035005354685752    -0.114365743651911
    -0.028276846819077     0.068116710888230     0.012737092639077
1 54
    -0.229522340544884    -0.009732983014102    -0.176773579167398
    -0.144716725190489     0.005256076270149    -0.149264605695678
     0.052991695561806    -0.031250675349879     0.078467463627432
1 55
    -0.566090846985804    -0.461209670731199     0.830107951186498
    -1.433372714273104     0.170283498019306     1.816113166224467
     1.124396611902687     0.630490035055471    -1.765881886922506
1 56
    -1.155149434550987    -1.516080968075270    -1.952974345486179
    -0.306876928220827     0.561614170476499    -0.043616086268022
    -1.147500110918037    -0.909459893703961    -1.766910185353717
1 57
     0.000314014371290     0.020571047713648    -0.010148912583037
     0.109097628950376    -0.186811745725743    -0.232570474290209
    -0.070581938319015     0.040077635571022     0.097825600844435
1 58
    -0.110573702757308     0.143330985700766    -0.142583544710624
     0.141953294081317    -0.089722394223838     0.082075301811715
     0.089692837625038    -0.028322045569421     0.016151733883839
1 59
     0.035617125641663     0.024487357588641    -0.001709266325812
     0.088583769023001    -0.169314106963514     0.225615391320308
    -0.041090373806984    -0.053599543924887     0.022502224853085
1 60
    -0.131516319844826     0.211942972498264     0.215469569733677
     0.072704086555084    -0.115208635383313    -0.092261660174188
    -0.000574848204535     0.055831002013219     0.073194525448771
1 61
    -1.149183464256943     1.491519703636269    -1.996041987190160
     0.319599249871599     0.529000312350258     0.045301178143625
    -1.141188610643310     0.860656850427019    -1.768609493512664
1 62
    -0.172016494160720    -0.033250762394704     0.197483975003752
    -0.092977329292328     0.034020581603929     0.111706243205328
    -0.025695694743851    -0.065495013890803     0.015830860719077
1 63
     0.830960544838821    -0.640242004101016     1.134563909763713
     0.348665771608418    -1.197599571864193     1.615411016438345
    -0.050206426319830     1.305035788217055    -1.794870298693019
1 64
    -0.231642107858439     0.011141775116278    -0.180307893659188
     0.149881404678166    -0.001509594037890     0.149178164003811
     0.055078462142127     0.028137647892107     0.081066419830791
1 65
    -0.106022649506329    -0.136209151717924    -0.139938416344872
    -0.138661432415413    -0.081315710663114    -0.079569596369038
     0.090764967616091     0.025791162322176     0.018984687441118
1 66
    -0.004525296189255    -0.023550083704850    -0.002005297319635
    -0.106536524965679    -0.194770616197280     0.236933129696475
    -0.073473564912159    -0.034876237916556     0.097438086185941
1 67
    -0.081554197812086    -0.146434079729872    -0.179709248332879
     0.016550478264073     0.012894181178436     0.022262314889484
     0.015052296561829    -0.066180340478180    -0.044181848515348
1 68
    -0.003639537866978    -0.021611980008276    -0.003255882154516
     0.002850178471475     0.000405739139898    -0.015688488092944
    -0.001311568920711    -0.006034917902045    -0.004844289457702
1 69
    -0.021953515941391    -0.016516940226978    -0.016203120532128
    -0.050989890031642    -0.007401558426611    -0.020488239860500
     0.026660545874813     0.015550097986487     0.020446807291815
1 70
    -0.112280154427552    -0.007786289199120     0.099437452970382
    -0.161943403594088    -0.024809324513530     0.104832062514717
     0.039386033293944    -0.026383340567122    -0.023590528424677
1 71
    -0.032622586963058    -0.046339918547457     0.007018884318548
    -0.007815476770129     0.006141889763593     0.010910907188605
    -0.020540130405075    -0.019526143419356     0.008625827904012
1 72
    -0.004125730437162     0.014370666827913     0.008503550015563
    -0.014630970472980     0.003637392473812     0.000637160228046
     0.003177828415069    -0.006958551264649    -0.007311509643032
1 73
    -0.050888261318347    -0.004346229237791     0.057086659479405
     0.133619557326377    -0.021308772280612    -0.175011526084516
     0.058134397214147     0.040868597353590    -0.056057625770336
1 74
     0.032815825526048     0.089259431034131     0.023274941861694
    -0.083939156779594    -0.171641916073835    -0.134069994503617
    -0.034187160690277    -0.005504593731502    -0.009048842306613
1 75
     0.004809874024556    -0.006750758686871    -0.014526562527379
     0.012906466424375    -0.014465656238749     0.011692687211170
    -0.004939674416758     0.005165264077502    -0.000659752823435
1 76
     0.022071696195709     0.021197181348081    -0.011616178854949
    -0.007642279565795    -0.042795542860189     0.028645677551750
     0.000993895407697    -0.029174464010453     0.024374261434592
1 77
    -0.023273482664143     0.009016863734403    -0.010031549408742
     0.046892734741189    -0.003446842422376    -0.004117004096517
     0.024874901676229    -0.006617071758532     0.004546884510040
1 78
     0.006477017865402     0.017629763785283    -0.005217873182343
    -0.013820885712555     0.001765855998892     0.002958019350869
     0.005662047726406     0.005793446298545    -0.010374063599538
1 79
     0.024012958556386    -0.084015399508411     0.026304101704966
     0.066543911395303    -0.167934611308853     0.127142687384953
    -0.029262426702422     0.017853261815082    -0.012342257641053
1 80
    -0.028965562463953     0.045958104437979     0.001869870135948
     0.006181490966201     0.005073428138571    -0.011573490152957
    -0.016892488172421     0.019863698512626     0.005276642347778
1 81
    -0.071667076884739     0.135881143839031    -0.192497096815591
    -0.022806354423420     0.016778807495400    -0.033539790854410
     0.018527723542260     0.071583798334127    -0.055207957308689
1 82
    -0.002434312149319    -0.015920234969956     0.005575604277536
     0.015935242403619     0.005384418078164    -0.001789159467964
     0.002949077063481     0.008015712586823    -0.008358307857628
1 83
     0.018530141072933    -0.025449363265723    -0.013127916808454
     0.003623115613181    -0.045569255535332    -0.029206807184572
     0.003208614125469     0.030429231492639     0.024340827446383
1 84
     0.006198428949848     0.006751722032016    -0.013530297874783
    -0.013329159081810    -0.012083777889564    -0.011686887101616
    -0.004823962466443    -0.004721423572808    -0.002923752949589
1 85
    -0.230554618866310     0.188773508211416     0.048726760012914
     0.572672779833675    -0.071073810069417     0.160564525982727
     0.463094513734711    -0.072736273575802     0.266849695286784
1 86
     0.116031667354544    -0.052611790939377    -0.015756488293029
    -0.055005591720884    -0.039433100901317     0.022641901158930
    -0.022943020147954    -0.004390692791764    -0.044955798181483
1 87
     0.008153773153920    -0.011887347015397     0.002383133899138
     0.052062223400015    -0.202929744496820     0.048078156783872
    -0.002051992133857     0.007038014810554    -0.001267797638680
1 88
     0.167457843499513     0.171859429292305     0.084858679815091
    -0.108479043016966    -0.190212897230082    -0.095232484222747
    -0.136274773503475    -0.182126905285450    -0.123075780020745
1 89
    -0.065932451230957     0.216285578186577     0.059586890778486
     0.057393384923224    -0.107353882213388    -0.036710502552782
     0.012488946728285    -0.007526063056518    -0.008311527075182
1 90
    -0.109804772658140    -0.028260927320640     0.037250101327982
     0.089541821935134     0.124623622057047    -0.047308386503633
     0.020577005867063     0.032078416951538     0.002574188456747
1 91
    -0.099958157523711     0.102356217498142    -0.003857344323329
     0.029626415278120     0.024571583016461     0.029753055580880
    -0.073372821874588     0.067430992412487     0.049614334346978
1 92
     0.047489625221914    -0.022770703599773     0.014607496531345
     0.025346394948117    -0.067641052520724     0.009654006971849
    -0.023830282601230     0.048571655370267    -0.039145221517163
1 93
     0.204812758025982    -0.296639468434745    -0.151774028794879
     0.081218919545298    -0.515060575519755    -0.053847861323699
    -0.160722717360124     0.432595999307455     0.263534288475491
1 94
    -0.121142120568801     0.281089052377439    -0.130941593936933
    -0.004639983642423     0.113905058709790    -0.024731279031373
    -0.085863389617768     0.200891926462651    -0.124458089829283
1 95
     0.048711455514467     0.090001001029786     0.023366271401757
     0.096645659683632     0.030152872931053     0.002864349041161
     0.006242884622032     0.026447084941811    -0.044273727014588
1 96
    -0.165143546403954     0.050389226203428     0.037870066982795
     0.110358282593990    -0.029346627883281    -0.025660813060632
     0.006376799765643    -0.001339552859088    -0.000296962988788
1 97
     0.021444856802043    -0.005216749609436     0.001173000786491
    -0.159379812932845    -0.185757809058294     0.065163299272598
     0.001426917223914     0.013460849193492    -0.008156724864244
1 98
     0.091174449868804     0.026825619559613     0.023795679993337
     0.138516352088004    -0.072882213313641     0.052295958022748
    -0.035293192175276     0.004161281374556     0.001809042656059
1 99
     0.048598140124273     0.050669806573799    -0.020613392156460
    -0.015311578792689    -0.117902645954411    -0.016159348073725
    -0.018376714460591    -0.095252520694920     0.048095040332584
1 100
    -0.037003994366579     0.024023532311702     0.002933942140952
     0.070567267721506     0.021045883464345    -0.019474202255587
     0.054485868649477    -0.005600455010995    -0.039106725887983
1 101
    -0.125633286872157    -0.284032919019633    -0.130693273617867
     0.003205151436034     0.113870757703644     0.027353302975262
    -0.086714046396668    -0.200083975285999    -0.122309432705026
1 102
    -0.065843386873834    -0.212223060006582     0.057709231237720
    -0.053901961563166    -0.099878633120844     0.034099233227423
     0.011684883532833     0.009972030506465    -0.009154350820376
1 103
    -0.236824682517578    -0.179413261205226     0.040319575906270
    -0.557457645788679    -0.063800029592375    -0.157883667779720
     0.460401945039507     0.073888003750528     0.266431880116159
1 104
    -0.107602993288947     0.028363578386776     0.036386371210525
    -0.083715134006396     0.122759451945862     0.046239054581370
     0.022208100807217    -0.030599248674195     0.002953714212969
1 105
    -0.167203625774067    -0.049732310699434     0.039541083489268
    -0.111376685225969    -0.027544764426466     0.026555317408094
     0.008315753741622     0.001931436879953    -0.001226190710120
1 106
     0.046868204893903    -0.091647798627953     0.025731825078246
    -0.096483313937979     0.030112907044094    -0.003064000927288
     0.005528030584074    -0.022271813828866    -0.045126994919927
1 107
    -0.038252228611561    -0.024066566850127     0.002086739027295
    -0.071521421253763     0.020603103897662     0.017428294214195
     0.054746123042045     0.004764990706295    -0.038987549851430
1 108
    -0.098125692163423    -0.100592317782854    -0.003655617435505
    -0.028907037037068     0.024762778398927    -0.026982681313556
    -0.072310828275180    -0.064491652016458     0.048176639199689
2 1
    -0.387035236737482    -0.410877469576271     0.142647788713284
    -0.410877505861621     0.074428480102672    -0.230236673556490
    -0.142654403932120     0.230248495663257    -0.496008117038859
2 2
     7.200797939768866    -0.159645183157065    -0.194644497924372
    -0.159640962641065     7.002360148413576    -0.330188972802323
    -0.194647542371648    -0.330192322952616     7.331714356923031
2 3
    -0.195661175091967    -0.060736115401718     0.005530795489120
     0.062771276940671    -0.195611650493503     0.004892515105958
    -0.007690323982312     0.005200896406749     0.121505866326365
2 4
    -0.196505296775560     0.061223302617731     0.008349546874860
    -0.062284063245939    -0.194767624406052     0.004059515694909
     0.001471419367572    -0.007235915028569     0.121505909155509
2 5
     0.310957425997201    -0.010228042577499    -0.256926734304235
    -0.008761183863896    -0.629652364580186     0.013242909325019
     0.283128373874804    -0.009122142600086    -0.500873619196698
2 6
    -0.386277633326120     0.412777123061693     0.149455852637458
     0.411310229956411     0.067582753516902     0.240622032962183
    -0.139939925344563    -0.215897037388720    -0.500872356949555
2 7
     0.079437321892145     0.264760691813377     0.105268733732837
     0.127579638513353     0.098235861695117     0.122034118108849
    -0.045360270377087    -0.105287747600870     0.056326459221156
2 8
    -1.592804916446939     0.421553878254748    -0.156683726116026
     0.901980028808915    -0.964204008830840     0.116152977953384
    -0.746891820718324     0.148593378317026    -0.443246923563135
2 9
     0.194710656918867    -0.141531759041221     0.156957787522999
    -0.109345707017393     0.073183579533152    -0.079515953228247
    -0.011889345071618     0.015971241602205    -0.040667015492733
2 10
     0.203882367841078    -0.066490945035442    -0.095322018002510
    -0.000892499613374    -0.072017914234610    -0.107355711621138
     0.022454949250809    -0.011934455496495    -0.055532920889482
2 11
    -0.040857299112820     0.050790649113954     0.003176614893835
     0.055660676387571     0.232639746457929    -0.078947417072571
    -0.013063350064850     0.069760584869419     0.011490221388738
2 12
     0.172005217577637    -0.499859439406335     0.409081971118404
    -0.766036626137402     0.636587925374432    -1.155302355743397
     0.396015282721602    -0.622190918122020     1.143692401890172
2 13
    -0.000597226844039     0.128857968633688     0.113462323652835
     0.021392410789178     0.163241413339615     0.056258246036377
     0.024951722970994    -0.032625322951084    -0.065426534390018
2 14
    -0.073040002128374    -0.582728385809559     0.726894733058442
    -0.264824976197723     0.904414750116665    -0.847673516385391
     0.311279133434279    -0.729717963837872     1.049038338385661
2 15
     0.186039411713802    -0.026836747471565     0.102186209081769
    -0.089277852757584    -0.048445706782516    -0.064499750217128
    -0.042250257605831     0.047478994625953     0.025437743466742
2 16
     0.265591943060837     0.025580812300491    -0.139276646338317
     0.195670840769765    -0.063209510687573    -0.062940943103058
     0.115177933471033    -0.024438637680798     0.063263661951322
2 17
    -0.001850612436946     0.018738182560381    -0.015467677867150
     0.027895149503985     0.225468153260987    -0.120470389439014
    -0.009605927575366     0.050399759463919    -0.058782673283571
2 18
    -0.450055546857822     0.220910209378317     0.104079053516583
    -0.424078423762035    -1.969031854336314     0.240851362900342
     0.467527993436585     0.745752636080087    -0.451664118401223
2 19
     1.012030654928184     0.259718318352302    -1.282779342519635
    -0.009666890119895    -0.266789095238862     0.183793809004255
    -0.644519853454826    -0.054295646675251     1.161184655429662
2 20
    -0.531663538204096    -0.190190781521858     0.075169320949541
     0.239760060723889    -1.807235835180504     0.060714438213736
     0.295975256461795    -0.521023514732419    -0.270546874380684
2 21
    -0.006984339860641     0.000302511333227    -0.006634567145196
     0.026431958009868     0.245145456139142     0.171595656768452
    -0.006534220428075    -0.014700750284051    -0.043960559082207
2 22
    -0.027045510543876    -0.132135529015413     0.143691312117473
    -0.062635695046939     0.160810701859712    -0.047886518268242
    -0.002879532326073     0.024205290733763    -0.051083534801137
2 23
    -0.076709079329034    -0.037330882117826     0.035027657977948
    -0.160413223467437     0.222921521365129    -0.169399710884603
    -0.065241742165818     0.095980166589591     0.042900413627994
2 24
     0.118387451449717    -0.144595437360459    -0.078872621950320
    -0.142689398740209     0.075832853873786     0.039142061942769
     0.060535000092111    -0.024859404053328     0.015014693847854
2 25
    -1.455978764060279     1.048721039599691     0.179873180691048
     0.370942725520511    -0.898906574881658    -0.233973497484331
     0.400681310071905    -0.785670974150750    -0.469851073681838
2 26
     0.289357274191175     0.457734225791120     0.320175337128802
     0.785018680160801     0.567258260235908     1.049282225532498
     0.481922344169961     0.675930526963396     0.999237969223433
2 27
    -0.040152618877552    -0.038602067617454     0.003496077940103
    -0.104343075620737     0.181469774296095     0.109945316145311
    -0.020365332442141    -0.063956788228130     0.019712818583970
2 28
     0.118004859992671    -0.303688289709064     0.094425414467872
    -0.116542291249338     0.102454649041885    -0.096247999654181
    -0.032375152734776     0.106514332404708     0.078004417247075
2 29
     0.052522642025606    -0.064092871088469    -0.018829150919508
    -0.164848722456666     0.105370590915066    -0.115381581563622
    -0.039658459803201    -0.005445898392402    -0.066736766706696
2 30
     0.160367329278965    -0.122602162678126    -0.095806767026812
    -0.114740310245033     0.086905968505029     0.072470219939558
     0.047952775575845    -0.019939398145425    -0.053714285427864
2 31
     0.185381266709276     0.023587916389726     0.096843331145714
     0.089463175668859    -0.047798097213934     0.059685317835009
    -0.041101723119698    -0.047347904349179     0.023539188358803
2 32
    -1.518334310418262    -1.050971850962226     0.179858437446012
    -0.382045970014007    -0.877174782968944     0.229406146326169
     0.420184653920789     0.760401190989742    -0.464024415140704
2 33
     0.157091820423750     0.118901388615343    -0.095666722091258
     0.111765979684010     0.082064283650531    -0.072050988670637
     0.051006698980045     0.019152193320145    -0.055999900130027
2 34
     0.056879002721330     0.062563237145732    -0.014049826476571
     0.162846145274715     0.103341627020741     0.119566938992662
    -0.042048400832108     0.007689844370411    -0.067312398653950
2 35
    -0.058106466431907     0.581953916878959     0.745156962557723
     0.257980229876468     0.883550861909723     0.808893492511035
     0.336185505302490     0.753265675547277     1.034995119582130
2 36
     0.276548529060052    -0.022719434795345    -0.133296242911728
    -0.211398479074597    -0.064022732275975     0.044074980290930
     0.120524319651714     0.024539477247603     0.071558415805898
2 37
     0.177556197919551     0.134026558417035     0.153388770061439
     0.103055275225026     0.066937669969852     0.079122283912238
    -0.008999957250492    -0.012516761435264    -0.040184794589139
2 38
     1.029671101308813    -0.244125858456136    -1.294255122750791