# epsilon and Z* of atoms 1 3 5 6 8 10 12 14 16 18 20 22 24 26 28 30 32 34 36 38 40 42 44 46 48 50 52 54 56 58 60 62 64 66 68 70 72 74 76 78 80 82 84 86 88 90 92 94 96 98 100 102 104 106 108 110 112 114 116 118
   2.41800178    0.02422721   -0.00002202    0.02422721    2.42480009   -0.01611624   -0.00002202   -0.01611625    2.49741160 
   2.04876877   -0.08861394    0.28841438   -0.06057473    1.97273556    0.17363084    0.15803501    0.38668903    1.92193932 
   1.98388108    0.08167053   -0.21793592    0.26151996    1.86950790   -0.28374380   -0.07696506   -0.35152898    2.31568292 
   1.94267215   -0.01551670    0.03814010   -0.06943836    2.35236487    0.12758299   -0.04090081   -0.17947252    2.55116556 
   2.32114992   -0.26366741   -0.02712205    0.06794413    1.88960708    0.01884621   -0.19726464    0.07622330    2.12426161 
  -0.91669688   -0.44459436   -0.16168492   -0.63657586   -1.53479442   -0.54100737   -0.09878691   -0.46188219   -1.29801587 
  -1.29177588    0.23077161   -0.12914198    0.14178991   -1.53982293    0.03815716   -0.15402288    0.11703340   -1.38078040 
  -0.96351626   -0.23643163    0.33818908   -0.49408309   -0.93319408    0.45972710    0.36035069    0.29398738   -1.88953404 
  -1.78831549    0.50613665    0.59759799    0.41686134   -0.87792707    0.20570599    0.50225258    0.06497698   -1.21975989 
  -1.20090642   -0.06937238    0.62666751    0.16299337   -1.20412309    0.78633976    0.22471385    0.90732230   -1.83900926 
  -1.02967277   -0.43576289   -0.69212571   -0.31502774   -1.03292717   -0.24399570   -0.59538189   -0.40906357   -1.89826988 
  -0.63130268   -0.15431660   -0.23084667   -0.31044156   -1.62063036    0.55922972   -0.03972126    0.87353121   -1.61484602 
  -1.84751546    0.23042147    0.87530957    0.04588694   -1.13836446    0.18533312    0.79921954    0.09244815   -1.22208415 
  -1.07559351   -0.39686758    0.69752182   -0.01398618   -1.39226535    0.68093491    0.13922706    0.95663978   -1.45230940 
  -0.79160156   -0.30557104   -0.30669730   -0.49678274   -2.11598038   -0.49954457   -0.21090512   -0.12329616   -0.88078976 
  -0.91139011    0.23450432   -0.57553555    0.30785119   -1.44311535    0.81066571   -0.51092084    0.53731639   -1.61975028 
  -1.06857023   -0.20019993   -0.00700654    0.02677017   -1.25171715   -0.75321541    0.16778635   -0.73164229   -1.42961205 
  -2.08232407   -0.48052814   -0.09695346   -0.59055364   -1.02856799   -0.16200307   -0.30574564   -0.25953730   -0.81033959 
   0.97845509    0.67993504   -0.31997753    1.07577229    1.54245783    0.08340707   -0.42495163    0.21434673    1.86893216 
   0.08826640    0.04114373    0.10991395    0.08235066    0.04184715   -0.15216986    0.22787410   -0.26601230   -0.04023385 
   0.07643860    0.01277902   -0.01146341   -0.06094719    0.05178274   -0.02234762   -0.11405434    0.10506417   -0.09995616 
  -0.03093672   -0.05939461   -0.03086575    0.01012712   -0.00738452    0.03201032    0.02330152    0.09151464   -0.00454045 
  -0.27619884    0.12404076    0.01826765    0.25484504   -0.10829669    0.04149959   -0.18664602    0.01660930    0.00323885 
   1.52777706   -0.16802491   -1.11895591   -0.56695638    1.08900427   -0.75646584   -0.39668761   -0.89136281    2.01426474 
   0.41202805    0.31275436    0.81017962    0.39269353    1.65129667   -0.18572811    0.48748610   -0.40651969    2.38155051 
   0.25811217   -0.07852819    0.12616268    0.06730363   -0.25228903   -0.14573219    0.06148703   -0.07250134    0.19616484 
  -0.05948652    0.01034593   -0.05025360   -0.11596018    0.03342213    0.04616673   -0.04913371   -0.00962338    0.01061938 
  -0.01663787    0.03279119   -0.01145539    0.03596246    0.07838008   -0.04632713    0.03016657    0.06043803   -0.07301089 
  -0.22490607    0.20074746   -0.08237281    0.19172976   -0.29338230    0.12571559   -0.12286054    0.05038691   -0.08703726 
   1.69649309    0.11213886   -1.23766336   -0.34875702    1.43432177   -0.83180416   -0.47511215   -1.05101945    1.62743229 
   0.67541822    0.05389262    0.55284122    0.11475804    2.55413149   -0.30520122    0.50958510   -0.37076546    1.45176654 
   0.23460650    0.00562746   -0.05122617    0.00021440   -0.01778794   -0.11362272    0.02622268   -0.21205543   -0.11384964 
  -0.01937624   -0.02329706    0.02362299    0.04328968   -0.04062127    0.03882295    0.01326919    0.00189536    0.06302621 
  -0.05820786   -0.00841026   -0.00464589   -0.04245419    0.06746846   -0.02319464   -0.12139925    0.06815556    0.04977316 
  -0.23141646    0.23794820    0.10638283    0.07156666    0.02332817   -0.08578452    0.14302858   -0.07003705   -0.00152382 
   2.07682357    0.67223814    0.17519709    0.64603831    1.31167169    0.88171037    0.16421659    1.04719006    1.11587304 
   0.68661744   -0.34816632    0.04241541   -0.36671661    0.53030573   -0.04900301    0.09359307   -0.12818766    0.31497218 
   0.03251666    0.03466994    0.03198054   -0.01453714    0.01912370    0.13651781    0.06022260    0.10608520    0.01257312 
  -0.11566387   -0.10993282   -0.05840649   -0.04591452   -0.02607785   -0.02060108   -0.05784221   -0.03471546    0.12898152 
   0.05892511    0.05331457    0.01742820    0.06180843    0.02827455   -0.10896380    0.03324718   -0.12386126   -0.10916781 
   0.05762468   -0.00924424   -0.01694659    0.00219089    0.09395318   -0.12677126    0.02178224   -0.09003345   -0.17579187 
  -0.09068242    0.11303948   -0.00166397    0.06313632    0.05989207   -0.02477888   -0.06069922   -0.02798295    0.09729034 
   0.05240873   -0.04529845    0.04114218   -0.05534968   -0.01882904    0.15429344    0.01387484    0.11606923    0.04480688 
   0.02113696   -0.02695714   -0.07400126   -0.04191019   -0.00185840   -0.01215257   -0.01282309    0.03496698    0.20380239 
   0.14652935    0.11487982   -0.02326456    0.03988796    0.03779288   -0.00017347   -0.04925381   -0.01888967   -0.05986484 
   0.00877742    0.02245792   -0.11120524    0.05061263    0.08734480    0.03584396   -0.04919441   -0.01007183   -0.05503612 
   0.06968118   -0.03616318   -0.00295573   -0.04037706   -0.14639814   -0.07321806   -0.01621866   -0.06263665    0.09144579 
   0.00472539   -0.05629784    0.13132268   -0.01722660    0.05950675    0.03498643    0.09664333    0.09295116   -0.04830566 
  -0.02743465    0.10162797    0.05855512    0.04008185    0.02394098   -0.02436339    0.08812156   -0.05103500    0.10211842 
   0.06273917   -0.11752631    0.01516116   -0.08972123   -0.16459697   -0.03626624    0.01806440   -0.00712778    0.05708179 
   0.02003207    0.00109151   -0.07282216    0.02725726    0.10003696    0.03467154   -0.14175872    0.01588870   -0.06625028 
   0.05843619    0.01604633   -0.00055727    0.02665514    0.13299567    0.00531520   -0.04554441   -0.03431479    0.12261320 
  -0.03182321    0.02469508    0.05748887    0.05418719    0.11068392    0.04183504    0.10238089    0.09978000   -0.05737818 
   0.05609612   -0.02260691   -0.13220105   -0.00091089    0.04175466   -0.03903767   -0.13013889   -0.09700402   -0.12399531 
  -0.05669360   -0.07851913    0.03127571   -0.12418261   -0.02205321    0.02769259    0.06832950    0.05991774    0.10204823 
  -0.01004436    0.10136356    0.06344250    0.07634810    0.04176157   -0.03760996    0.03081803   -0.00016150    0.03983913 
   0.04857375    0.11211132   -0.03216833    0.07153574   -0.06473083    0.11264346    0.00371173    0.05877072    0.04143615 
  -0.01023406   -0.13429721    0.04045577   -0.05744487   -0.03289943   -0.00596925    0.05516117    0.02684941    0.08483623 
   0.04788883   -0.01709259   -0.05931647   -0.01994127    0.06606310   -0.09368198   -0.07183752   -0.11957622   -0.14591014 
   0.02124461   -0.07111705   -0.00489790   -0.03810105    0.07613880   -0.10850269   -0.03133037   -0.06215275   -0.09015169 
   0.05548424    0.01940114    0.05839885    0.06816705    0.01374023    0.09743468    0.04351054    0.07119468    0.04327181 