 119  119
1 1
     9.747332885484930     1.660082413353812     0.464159611677736
     1.660082393452118    12.022992709530506     2.121540271835329
     0.464159598385633     2.121540380016667    12.025490853919585
1 2
    -0.012789801271206    -0.020784284520494    -0.164292740075531
    -0.020784284520494     0.152736715910047     0.096944316109170
    -0.164292740075531     0.096944316109171    -0.180563448765366
1 3
     0.243690007638839    -0.578965874936323    -0.076780631536387
    -0.285291060400810    -1.392580663632853     0.567948082248504
     0.229477352581676     1.016445928118586     1.152933140753029
1 4
    -0.065006544867876     0.084384800039125    -0.307079942706766
     0.031284714149642     0.084722360580789    -0.093428999142440
    -0.104280938182273     0.024140329469716    -0.238800188970730
1 5
     0.576180575891181     0.411524592015515    -0.159300420766746
     0.591206425374673     0.379059897920209     0.681230101432913
    -0.687282528449897     0.553522072931832    -1.029945874083041
1 6
    -0.617673912496092    -0.114904916256765     0.396937415575481
     0.159829605559922     0.177539759254491    -0.144140605198565
     0.053082583299012     0.030375309031410    -0.023060755977570
1 7
    -0.045920852653646    -0.037183139433193    -0.004686684647862
    -0.018151910514002     0.080919988861142     0.009279011500693
     0.120438279565584     0.024629230180912    -0.127510206111306
1 8
    -0.916718169061057     0.143905270994211     0.714956665105005
     0.831077115759903    -1.920651433952748    -2.777063487186981
     1.583448001336568    -1.914075073254862    -4.711890243375465
1 9
     0.042097910678543    -0.026825767286433     0.139931856495515
    -0.040714922452866    -0.067320404417002    -0.108682255612781
     0.022495672973560    -0.045414811380894     0.021485221629871
1 10
    -1.293726691055013    -0.113625467956894     0.789787797808820
    -0.855654151316072    -1.964369310311072     2.143622942271860
     1.356957172304319     1.559991284301267    -3.554697886317979
1 11
     0.021246947045213    -0.073197847676012     0.147292385111010
    -0.008550224886813    -0.140982734630166    -0.039042084618309
     0.117059159626572    -0.109270018511490     0.157905608968268
1 12
    -0.523284465757760    -0.049066212132804     0.431071654342458
     0.430882110938378     0.577207520647479    -0.033974283742496
     0.921863495909988     1.018357287690025    -1.116788519415152
1 13
    -0.047794518593409    -0.066706119091367     0.195952767007065
    -0.021581516208188     0.014638383550286    -0.082750415183566
     0.032526278874708    -0.039076043171952     0.066062103698637
1 14
    -0.086555136513511     0.057638465356620     0.108451236837425
     0.084992722636923    -0.105735836272049     0.033069797349464
     0.077206812282800    -0.050201485597310     0.218586290622195
1 15
    -2.620061767168991     2.005590012239934    -1.504348516181833
     1.601348856362953    -1.982551204617666     1.205752382689751
    -0.766437031604757     0.765396462589402    -1.133104457932720
1 16
    -0.018238850461472    -0.014854091286444     0.065525461870994
     0.025147399717930    -0.102892611880416     0.091225617969288
    -0.000152542400374    -0.181556058120491     0.251842199786709
1 17
     0.719325795514137     0.409041284335601    -1.283740809667666
    -0.285047956846820    -0.751997160719033     1.008258672200976
    -0.207025449321509     0.464879461791295    -0.738933275531321
1 18
    -3.251201757251784    -3.029228109121638    -0.314119121287125
    -3.094878554616166    -3.633746196109091    -0.438841421752229
    -1.267941682790776    -1.202659922265588    -0.736815615662280
1 19
     0.004981868809073    -0.000394057614927    -0.017765592867566
    -0.027423100913252    -0.007870151901989    -0.130656830182580
     0.084324039389297     0.001807997947424     0.225087614387812
1 20
     0.017025468916955    -0.662932419437704     1.286183526966498
     0.026135163760206    -0.878362076719291     1.223537155277580
     0.324725957723657     0.108690555682183     0.331893265316467
1 21
    -0.051651342791607     0.066713605835482    -0.045676030807470
    -0.011569050311200     0.208595571527035    -0.212275953167093
     0.028439438661257    -0.317135506500716     0.261204316635799
1 22
     0.287042109069040    -0.067298164576864    -0.134584037381510
    -0.000703174009903    -0.011476865544216     0.051724055876060
     0.023706715674645    -0.007289752541714     0.001271789577559
1 23
     0.086974032539049     0.042843684742269    -0.060711366377702
     0.116632521257209     0.080580934536949    -0.129272386531195
    -0.099989235649639     0.008783569906049     0.130842960208097
1 24
     0.117176335796759    -0.005916422438266    -0.008745331861328
     0.032984568630249    -0.059200264587578     0.070989841280509
     0.056878480786327    -0.004897367636709     0.057295733782630
1 25
     0.040755564748806     0.132131387940993    -0.077244136045333
     0.107428872546305     0.305277609117870    -0.241059910741182
    -0.115452858976251    -0.251397624547279     0.031629921224864
1 26
     0.235335050118932     0.190645408763732     0.047310191851810
    -0.095629516791798    -0.237981874052175    -0.076794728819613
    -0.004303464524357    -0.052962941901610    -0.047425078090552
1 27
     0.005386159779509     0.073208884670228    -0.031920743486310
    -0.025666541694119    -0.148955050724370    -0.056360250950977
    -0.055915390751236    -0.072818947982137     0.055129988732902
1 28
     0.039068571868352     0.056362223018629     0.021312810102211
    -0.003157044457259    -0.094645969176814     0.026311773192866
    -0.008800647667769    -0.013093093540663    -0.007334915659919
1 29
     0.006148526073947     0.110579432996794    -0.224140639595731
     0.027409469710751    -0.107756736606069     0.078537909837913
    -0.005424072260676    -0.067957548061078     0.106430376397507
1 30
    -0.007353521488680    -0.398467070883932    -0.012686516884869
    -0.228808018906496     0.034773630492078    -0.134268968623400
     0.212234668028057    -0.407099908931883    -0.250436511836847
1 31
    -0.057165877547195    -0.062122232624058    -0.069648079189483
    -0.011233929224047    -0.154801779316009    -0.202532145548305
    -0.030901049572468     0.156233295602316     0.399345231124054
1 32
    -0.283912321111711    -0.134045610439036    -0.030819811456942
    -0.327320642807836     0.160757359907112    -0.101326716788957
    -0.166770802517951    -0.176229756410858    -0.259346113667395
1 33
    -0.052141578727174    -0.062000726551520     0.072216737668426
    -0.117662845721659    -0.059149164719896     0.006313420855166
     0.097298699435642     0.107836333367005     0.120163731242884
1 34
     0.941123685518544     0.320316931452763    -0.854120047745900
    -0.803483200553154    -1.726668885840197    -1.376590608599864
    -2.165528308663684    -2.873940085686730    -0.651430443525254
1 35
    -0.000092293825873     0.103814061792957    -0.242727025822367
     0.076720575348336     0.009282089029156     0.127628132725582
    -0.016854682356293     0.058786968167832    -0.003308686074480
1 36
     0.001882895612965    -0.175807100153061     0.056046066431717
    -0.084254890158665     0.154515009742270     0.008199792232961
     0.101735731475054     0.154753382650366     0.041065702164281
1 37
     0.035650820985455     0.103519909186345    -0.075757109199588
    -0.003743686078380    -0.016879488848074     0.046030935260312
    -0.020754709911694     0.021963804397986    -0.019459035019057
1 38
     0.011197236852981    -0.011518982367613    -0.047643315043402
     0.068575603060237    -0.026302870921233     0.111009233465859
     0.091354260681051    -0.041965267938391     0.080936895721461
1 39
    -0.043412478611353    -0.031309958141052     0.023201855489897
    -0.001929668516671    -0.009829287550015    -0.022345504790998
    -0.007970682137292     0.003539710143308     0.012524116125055
1 40
     0.014710690915814    -0.013754382755889    -0.039957931757857
    -0.050672497929909    -0.007408769778260     0.044856928004601
    -0.054982818917912     0.008243056964206     0.091586356616814
1 41
    -0.019436513352003    -0.049963700375444     0.039151222764899
     0.056078123576960    -0.022667621155008    -0.033698512608723
    -0.020380405830162    -0.004816381607844     0.004220226841395
1 42
    -0.013194123262299     0.002742899128694     0.016417981088242
     0.062023448104370     0.068394007289611     0.007080761453877
     0.055124313576719     0.035148025406062    -0.002630655390985
1 43
     0.312931609640376    -0.034425637397774    -0.081149732640757
    -0.118027137641856     0.101991130671384     0.207781271792843
     0.127885299467642     0.088117200901939    -0.064682801392112
1 44
     0.141319751789268    -0.027449991892095    -0.105737221790810
    -0.096934272178325     0.132036484758468    -0.096284935298628
    -0.001347218601888     0.163343533297365    -0.337378131706073
1 45
    -2.599792426017097     0.632155749272724     1.700048971761057
     1.656626077266171     0.128624032840009    -1.587932933005866
    -0.192609285040507    -0.553263987992155     1.301749745587594
1 46
    -0.970597548015823    -0.346135309644470    -2.685789847194961
    -0.913107729895477    -0.149984538399473    -2.627515708766082
    -0.961800223168271    -1.100763450231683    -0.825777002649526
1 47
     0.007984515627812    -0.000524402795350     0.032675785337371
     0.002204374284547    -0.139470757393776     0.210938110311510
    -0.033757164263516     0.144616187328988    -0.339997937446329
1 48
     0.071123867024370     0.000945471583913     0.122708033995379
    -0.135462184009526     0.086449603440661     0.088874059448324
    -0.117522215071549     0.074461102086466    -0.038366029084211
1 49
    -0.000291649892169    -0.011654186199132     0.005052652775152
    -0.001165828456953     0.028911478576471     0.003689877822613
     0.005714667156955     0.000821332290110     0.010101605082052
1 50
     0.119090555034328     0.020448161644199     0.023284364014918
     0.080765396867166     0.059003701860001    -0.000148904047036
     0.073430509218780     0.035637842663952     0.021119554321319
1 51
     0.003637784561504     0.024832443361994    -0.013139950795755
    -0.003402981842941    -0.002767606646810    -0.012539992958008
    -0.022730148675099    -0.006196702299956    -0.004270521341041
1 52
    -0.016751771175740     0.057511542747635     0.059131334961133
    -0.007894778117136     0.001501581227071     0.037407484202132
     0.007206100560307     0.037847483930081     0.048887460939758
1 53
    -0.000518129551263     0.000500132184531     0.000396374418543
    -0.008594509085063    -0.008731821876543     0.006298755152697
     0.002903774878408    -0.024229554198853    -0.000356129397058
1 54
     0.084769996038726     0.091754481487427     0.003443424214642
     0.055618204824664     0.053516234480889     0.009730827268747
     0.024929078461167     0.021949042380425    -0.006483086231089
1 55
     0.002531930155957    -0.005000973933806    -0.011790514700802
    -0.021953486320072     0.027404103135495    -0.011973112115477
    -0.002979032001860    -0.013717353226722     0.022205599259332
1 56
    -0.288026916498271     0.029074384735790     0.117300585446370
    -0.062595979969379     0.066424495196408    -0.060784662890418
    -0.075273107493802     0.011253136373377    -0.020887328421535
1 57
    -0.075127630775750    -0.086224825864912     0.123660002835816
    -0.031135814343330    -0.269090602443914     0.280378232929268
     0.059601768144331     0.107508473362631    -0.185545208037304
1 58
    -0.090676890537216    -0.189128853944477    -0.050292373141348
     0.062308804021575     0.265640096265102     0.030589601769604
    -0.015552596411741     0.070396748358530     0.067713084290345
1 59
     0.048855705785768    -0.146149557157254     0.133255901949988
    -0.001805452349264     0.205984806672497     0.021907909757662
     0.020502071246503     0.115297509579127    -0.126869277414144
1 60
    -0.004463922377458     0.053788159436928    -0.068374858458808
     0.006517314296155     0.023881762819196    -0.002142035472221
    -0.007452192830335    -0.039848071005278     0.013654386064423
1 61
     0.015734111210122    -0.012935712069285     0.002085317720005
    -0.008060424810583    -0.009058384129820    -0.000479240410303
    -0.019872711052315     0.012526631083813    -0.013254568930280
1 62
    -0.091319153304474     0.071043995508868     0.118599155484376
    -0.011267546208781    -0.041820376362723     0.008274488191118
    -0.008993381264619    -0.006026726132488    -0.012843454174086
1 63
    -0.017983739257723    -0.022316347424192    -0.018818323761588
     0.019952756188506    -0.010672262259810     0.006504656798363
     0.052481902577943     0.050023159111878     0.010885345296417
1 64
     0.004999328602642    -0.044613419384906     0.055431285344142
    -0.011685659532907    -0.038630696353622     0.001542002598526
    -0.008919020388743    -0.007695455453687    -0.014018283692357
1 65
    -0.012500884457177     0.025426266871229     0.002413525020720
    -0.026899392287560    -0.002761987132490    -0.001316542812778
     0.048307823504806     0.012588613633235     0.019322698994908
1 66
    -0.005398429945690    -0.017324346131195     0.006436183735711
    -0.008374368413231    -0.018574301644406     0.009346909213378
     0.013391559121172    -0.021330871597360    -0.035955164703296
1 67
    -0.016545683945564     0.006292566050902    -0.021036086063787
    -0.000175903402089    -0.025726874210413    -0.022991817251257
    -0.003987322334008     0.038470446794862     0.015855722248132
1 68
     0.148912918560183     0.493499838272768     0.271184307424138
     0.440461896135903    -0.089969778833441     0.007658711270932
     0.132171964441652     0.417102340789999     0.402125445862998
1 69
     0.067111777625016     0.064202551353707     0.015278791893160
     0.098255025144122     0.173155742794822     0.081399755067677
    -0.067134447177680    -0.271499115107956    -0.249765142061618
1 70
    -0.109127155387730    -0.625184529511709     0.948323713184600
    -0.434933443543621     0.583127347812508     0.015317733712033
     0.791510685717174     0.139672132527856    -0.597891929694658
1 71
    -0.022117841788761     0.013750543840721    -0.014317442612105
    -0.020721028823853     0.038128145003859     0.011056649739541
    -0.074332433590939     0.065443066125091    -0.022951391385870
1 72
    -0.000522415472681     0.006912546195103     0.006286184127983
     0.012652500282934    -0.024444054405261    -0.014012368554579
     0.006578968487658     0.001385094185978    -0.002428527063222
1 73
     0.021444631907496    -0.023388493472323     0.006396116463115
     0.000920792771847    -0.000598617255603    -0.026328748930278
     0.002492619305413    -0.013148316483090    -0.016416181613997
1 74
    -0.009349373789868     0.001519017935041     0.012256377029776
     0.021315997655258    -0.009650040758167    -0.015022440346020
     0.030036824224383    -0.025106996205437    -0.011405731114375
1 75
     0.001504523265662     0.008728086127935     0.005893381276429
    -0.009978274289456     0.016022886329691     0.011716660682371
     0.002396689239075     0.009675308529825     0.000609699052007
1 76
     0.001163617215009    -0.008502870379899    -0.006714115945678
    -0.036734335564659     0.042955713334395     0.021193181787486
    -0.028923897907801     0.051397582868068     0.013463052363801
1 77
     0.000247085931723    -0.003749479748346    -0.000870429741253
    -0.009945157803158    -0.017724761660928     0.014872683876718
    -0.001713192335586    -0.008405238502436     0.007019848739576
1 78
    -0.010358650761477    -0.004215927228889    -0.000691389202926
     0.021929749551288     0.021486298691426     0.041762728795652
     0.035765487887212     0.026347614320693     0.045646162849805
1 79
     0.016480245843660     0.003884627759295    -0.010044847021041
    -0.014886570065501    -0.018511660596130     0.015705054233723
     0.013777050163864    -0.007855559865492    -0.009175847563061
1 80
    -0.008927943537416    -0.005602098121853    -0.000056543778976
     0.008935789049966     0.005164236194755    -0.009530659444493
     0.006647826478250    -0.002137734910263    -0.006243713803241
1 81
     0.066858652996143     0.078422808479136    -0.001123960159357
    -0.024347050304815    -0.065722442150132     0.028193169167671
     0.006552164685416     0.029546486620634     0.021174428177042
1 82
    -0.007052783391757    -0.001405729004779     0.000984239931413
     0.003147527159333    -0.023889943708253    -0.014489633149209
     0.003227064216069    -0.010698501555306    -0.017120938391752
1 83
     0.005799030288587    -0.033394466397461     0.010594202879976
    -0.012414324923182     0.021292515485376    -0.025133921184836
     0.007231722447806    -0.005201582795582     0.001040896039983
1 84
    -0.004954645134385     0.004740237371457     0.019440224708234
     0.024889077643822     0.014539997687262    -0.055295143426986
     0.044036275445297    -0.007064676447842    -0.093902885671397
1 85
     0.012496049420613    -0.066293325875923     0.008833087147365
     0.000927712485762     0.024614028880050     0.007780889569702
     0.021928534361131    -0.016582304953347     0.003526840358190
1 86
    -0.011816795144329    -0.006709660447263    -0.004772946245807
     0.006060251082899    -0.022325306602573     0.038737387173716
     0.024585103446081     0.003624229376560     0.038474874036220
1 87
     0.017283149899393    -0.078714968072063     0.028000754029380
    -0.045858217728040     0.059550487432662    -0.025264677958700
     0.014867043654660    -0.023206450078963    -0.001402291095553
1 88
     0.037847527252995    -0.023630578400910    -0.010284833788384
     0.017228491523059    -0.067969455190028     0.011393823837108
     0.006527284522234    -0.020146021694735     0.011323074298659
1 89
     0.000688546728798    -0.008319298589077    -0.009219712472153
    -0.006437127651965     0.004733234475954    -0.002087539615593
    -0.001018043000772    -0.002920013053665    -0.001430744621627
1 90
    -0.034427865537193     0.041158495360618     0.015311035260693
    -0.000593824886823     0.045033221446310     0.029136382545262
    -0.009183012025263     0.033853082144297    -0.000398246879628
1 91
    -0.008519343218496    -0.004505192435943     0.016706036078883
     0.010263835058621     0.015183616258089    -0.009373618905192
     0.012419500398708    -0.002771348171849     0.000866592864745
1 92
     0.002951544498190    -0.010195069425411     0.015590467167175
    -0.007861651728670    -0.017749613921960    -0.008849523445714
    -0.002994679296370    -0.022057593283134    -0.017440355403557
1 93
     0.011612717824602     0.000827475378078     0.006391477876790
     0.002997703232990    -0.022220035873968     0.004723368249650
    -0.001451627407569    -0.001154138112016     0.006429129825325
1 94
    -0.024109923023034    -0.016099204765217    -0.007408266506844
    -0.000399882627728    -0.002445915084686    -0.006559136076513
    -0.001068260118649    -0.007872078867980    -0.000875411206455
1 95
     0.003832050484216    -0.004785849292031     0.003556317594752
    -0.001099479856857     0.006813869285754    -0.000710480068802
    -0.001600203226314     0.009322957990225    -0.011018453903326
1 96
     0.028779197042552     0.044745277700859     0.002182156718546
     0.027147687203967     0.036267264809867     0.010316495571356
     0.020245514207590     0.022578347629567    -0.006036631455029
1 97
    -0.003559136020946     0.003937764763497    -0.001930241143019
     0.005400084530273     0.006869433665011    -0.006417756317672
    -0.004287989067084    -0.004815271618724    -0.000130316138735
1 98
    -0.009541478608934    -0.061543605898072     0.029688136821860
    -0.023348990408692    -0.051590587548707     0.031006144577963
    -0.009462613741470    -0.016331778336502     0.019511490777911
1 99
    -0.004366407175414     0.004336830713152    -0.001217901928066
     0.002921196830097     0.002040874417578    -0.001876058999202
     0.006393534348766     0.001184150851851     0.003318324995866
1 100
     0.031629243914961     0.000093434318410     0.036923472265722
     0.018263817505256    -0.006241387846288     0.008712521781746
     0.019966723507005     0.007936208623047    -0.006562215764929
1 101
    -0.022395309821421     0.003138468388980     0.012279482649995
    -0.003294390257282    -0.002754839458690    -0.016667439340603
    -0.005904897099439    -0.004980067190685     0.001218430066668
1 102
     0.009471692012953    -0.017767842593013    -0.005909890161483
    -0.011695255283705    -0.020738318267972    -0.004504744705015
    -0.012718007267493    -0.026773902787981    -0.013732893444422
1 103
     0.011284100343241     0.016295745216758    -0.002422241917917
     0.001303172181323    -0.029013444587435    -0.001877324570002
     0.002668452179691     0.010732962159703     0.008993067287693
1 104
     0.007394863005825    -0.005399963601463     0.000376666184532
     0.021372743197708    -0.015069566778804    -0.031270135593698
     0.035793144442167    -0.024455628239926    -0.043011935785813
1 105
    -0.036843609451236    -0.013256064573556     0.003135478742989
    -0.023868209526245    -0.016874651054352    -0.001826027077855
    -0.007468174755511    -0.006318729427337     0.005998104993854
1 106
     0.037453051161966    -0.018323267296264    -0.029485208399128
    -0.035486917402917     0.011502481374351     0.012369776977776
    -0.023206773302375     0.010917955058118    -0.007506538250504
1 107
     0.027827526427100     0.018329117963416     0.047045665607871
    -0.000320990227296     0.037096068218388     0.024475154637855
    -0.003501242994424    -0.014839972146870    -0.025842744243504
1 108
    -0.069649707749516    -0.007149929963430    -0.043512935947861
     0.022886228293420     0.085884172739192     0.026593957937590
     0.025718441830378     0.026571262742275     0.087347228401586
1 109
     0.004252111116272     0.008315963132091    -0.016449923329229
     0.011167750604931     0.009762509767794    -0.011107541745665
    -0.018123039217308    -0.009396793579451    -0.003962287955009
1 110
     0.014309939343813    -0.015342355015138    -0.008747300044603
    -0.011659451028929    -0.012031839693367    -0.001938618290413
    -0.008626699119662     0.002339777990426     0.006773059691976
1 111
    -0.001255722846324     0.006318291007216    -0.007823638792560
     0.009642205425218     0.004376397251771    -0.022586526619188
    -0.010325093235481    -0.017445303071081    -0.001952616232634
1 112
    -0.001789574896018     0.001878480156906    -0.015997131364266
    -0.029282136257487     0.029033284825988     0.000847715324884
    -0.010611966200850     0.015086532332843     0.000068932976927
1 113
     0.021001262535047    -0.004376105467974     0.003737658858884
     0.018750637299784     0.011031062709587     0.036669054324398
    -0.025650277634817     0.009326567490597    -0.017083449848679
1 114
     0.001526230372744     0.011471764742038     0.005406307640107
     0.010245419197492    -0.005212428458909    -0.001516095492292
     0.006568686942597    -0.001943153049057    -0.005195604049576
1 115
    -0.003854250740757    -0.020367607439866    -0.005136663402917
    -0.010895302157489    -0.031623137775446     0.000761079220359
    -0.005071530433520    -0.000351622417402     0.005023083547946
1 116
     0.012955699425104     0.013077214180817    -0.012406736519888
    -0.002642578439509    -0.024708922613248     0.012081938927291
     0.024176568870245    -0.019072511650787    -0.020709861496211
1 117
    -0.009754242299809    -0.001088415979258    -0.003562829072358
     0.002328888370694    -0.015798057056604     0.002448311553491
    -0.008911483480690    -0.002365900716749     0.017482029807194
1 118
    -0.000355737254272    -0.012375742400028     0.000122445078006
    -0.018038560467777    -0.013468591579136     0.002621182368348
    -0.000819936332117     0.000642922774662    -0.009771910938535
1 119
     0.006432234603165     0.012447063647503     0.006242318989129
    -0.001727487775095    -0.005263609997421    -0.013211422136931
    -0.011663135072777    -0.010534681879707     0.001853983825517
2 1
    -0.012789801271206    -0.020784284520494    -0.164292740075531
    -0.020784284520494     0.152736715910047     0.096944316109170
    -0.164292740075531     0.096944316109171    -0.180563448765366
2 2
     9.747332885484930     1.660082413353812     0.464159611677736
     1.660082393452118    12.022992709530506     2.121540271835329
     0.464159598385633     2.121540380016667    12.025490853919585
2 3
    -0.065006544867876     0.084384800039125    -0.307079942706766
     0.031284714149642     0.084722360580789    -0.093428999142440
    -0.104280938182273     0.024140329469716    -0.238800188970730
2 4
     0.243690007638839    -0.578965874936323    -0.076780631536387
    -0.285291060400810    -1.392580663632853     0.567948082248504
     0.229477352581676     1.016445928118586     1.152933140753029
2 5
     0.576180575891181     0.411524592015515    -0.159300420766746
     0.591206425374673     0.379059897920209     0.681230101432913
    -0.687282528449897     0.553522072931832    -1.029945874083041
2 6
    -0.045920852653646    -0.037183139433193    -0.004686684647862
    -0.018151910514002     0.080919988861142     0.009279011500693
     0.120438279565584     0.024629230180912    -0.127510206111306
2 7
    -0.617673912496092    -0.114904916256765     0.396937415575481
     0.159829605559922     0.177539759254491    -0.144140605198565
     0.053082583299012     0.030375309031410    -0.023060755977570
2 8
     0.042097910678543    -0.026825767286433     0.139931856495515
    -0.040714922452866    -0.067320404417002    -0.108682255612781
     0.022495672973560    -0.045414811380894     0.021485221629871
2 9
    -0.916718169061057     0.143905270994211     0.714956665105005
     0.831077115759903    -1.920651433952748    -2.777063487186981
     1.583448001336568    -1.914075073254862    -4.711890243375465
2 10
     0.021246947045213    -0.073197847676012     0.147292385111010
    -0.008550224886813    -0.140982734630166    -0.039042084618309
     0.117059159626572    -0.109270018511490     0.157905608968268
2 11
    -1.293726691055013    -0.113625467956894     0.789787797808820
    -0.855654151316072    -1.964369310311072     2.143622942271860
     1.356957172304319     1.559991284301267    -3.554697886317979
2 12
    -0.047794518593409    -0.066706119091367     0.195952767007065
    -0.021581516208188     0.014638383550286    -0.082750415183566
     0.032526278874708    -0.039076043171952     0.066062103698637
2 13
    -0.523284465757760    -0.049066212132804     0.431071654342458
     0.430882110938378     0.577207520647479    -0.033974283742496
     0.921863495909988     1.018357287690025    -1.116788519415152
2 14
    -2.620061767168991     2.005590012239934    -1.504348516181833
     1.601348856362953    -1.982551204617666     1.205752382689751
    -0.766437031604757     0.765396462589402    -1.133104457932720
2 15
    -0.086555136513511     0.057638465356620     0.108451236837425
     0.084992722636923    -0.105735836272049     0.033069797349464
     0.077206812282800    -0.050201485597310     0.218586290622195
2 16
     0.719325795514137     0.409041284335601    -1.283740809667666
    -0.285047956846820    -0.751997160719033     1.008258672200976
    -0.207025449321509     0.464879461791295    -0.738933275531321
2 17
    -0.018238850461472    -0.014854091286444     0.065525461870994
     0.025147399717930    -0.102892611880416     0.091225617969288
    -0.000152542400374    -0.181556058120491     0.251842199786709
2 18
     0.004981868809073    -0.000394057614927    -0.017765592867566
    -0.027423100913252    -0.007870151901989    -0.130656830182580
     0.084324039389297     0.001807997947424     0.225087614387812
2 19
    -3.251201757251784    -3.029228109121638    -0.314119121287125
    -3.094878554616166    -3.633746196109091    -0.438841421752229
    -1.267941682790776    -1.202659922265588    -0.736815615662280
2 20
    -0.051651342791607     0.066713605835482    -0.045676030807470
    -0.011569050311200     0.208595571527035    -0.212275953167093
     0.028439438661257    -0.317135506500716     0.261204316635799
2 21
     0.017025468916955    -0.662932419437704     1.286183526966498
     0.026135163760206    -0.878362076719291     1.223537155277580
     0.324725957723657     0.108690555682183     0.331893265316467
2 22
     0.086974032539049     0.042843684742269    -0.060711366377702
     0.116632521257209     0.080580934536949    -0.129272386531195
    -0.099989235649639     0.008783569906049     0.130842960208097
2 23
     0.287042109069040    -0.067298164576864    -0.134584037381510
    -0.000703174009903    -0.011476865544216     0.051724055876060
     0.023706715674645    -0.007289752541714     0.001271789577559
2 24
     0.040755564748806     0.132131387940993    -0.077244136045333
     0.107428872546305     0.305277609117870    -0.241059910741182
    -0.115452858976251    -0.251397624547279     0.031629921224864
2 25
     0.117176335796759    -0.005916422438266    -0.008745331861328
     0.032984568630249    -0.059200264587578     0.070989841280509
     0.056878480786327    -0.004897367636709     0.057295733782630
2 26
     0.005386159779509     0.073208884670228    -0.031920743486310
    -0.025666541694119    -0.148955050724370    -0.056360250950977
    -0.055915390751236    -0.072818947982137     0.055129988732902
2 27
     0.235335050118932     0.190645408763732     0.047310191851810