# epsilon and Z* of atoms 1 3 5 7 9 11 13 15 17 19 21 23 25 27 29 31 33 35 37 39 41 43 45 47 49 51 53 55 57 59 61 63 65 67 69 71 73 75 77 79
   2.30727467   -0.00330720   -0.00768314   -0.00330720    2.47502108   -0.00221539   -0.00768314   -0.00221539    2.39747908 
  -1.19186255   -0.29819377   -0.66276285   -0.46808129   -1.22721446   -0.37228104   -0.51702984   -0.10593025   -1.53103339 
  -1.37119333   -0.43931855    0.34923901   -0.61704749   -1.60654521    0.12892762    0.12853703   -0.01667197   -0.88978274 
  -0.78267936   -0.24575340    0.01765684   -0.16914458   -1.68439998   -0.81568845    0.04055746   -0.44984371   -1.39966531 
  -0.98671026    0.37479323    0.00042811    0.31398829   -1.92246933   -0.39670973   -0.11799190   -0.07840477   -0.87202389 
  -0.97631910   -0.36180503    0.00852486   -0.32260153   -1.92746563    0.41097844   -0.10790140    0.08316524   -0.88087116 
  -0.78163117    0.25946147    0.01061130    0.18343319   -1.66820325    0.81741559    0.03291947    0.45267701   -1.41061737 
  -1.37719207    0.44655257    0.34666800    0.61994188   -1.60108432   -0.11285851    0.11735183    0.03744163   -0.89076762 
  -1.21554269    0.29472176   -0.67233726    0.46868074   -1.21991613    0.35524199   -0.53138552    0.09805517   -1.51642356 
   0.18050273   -0.02277674   -0.07769633   -0.00654615   -0.04319789    0.27019527    0.05566193    0.35719343   -0.13403387 
   0.00393552   -0.00644574    0.00229694    0.02997882    0.07117339   -0.03723249   -0.08902411   -0.07855727    0.08751578 
  -0.08873600   -0.04495670   -0.02215975   -0.06023589    0.02440281   -0.09612184   -0.00475470   -0.07752051    0.09570994 
  -0.01140066   -0.03618150    0.28590194   -0.01301255    0.09105900   -0.05966662    0.18192816   -0.07920836   -0.34293964 
   1.10777690    0.70424135   -0.48628652    0.73000923    1.99249837    0.67651663   -0.36920109    0.47121292    1.41873418 
   0.90286858    0.61937019    0.65033679    0.69791201    2.08615227   -0.15335782    0.62390610   -0.19628108    1.46946287 
   0.93412625   -0.62882887    0.66655997   -0.68741594    2.06918742    0.16768074    0.64584386    0.19556461    1.43683076 
   1.10944295   -0.72067357   -0.46584091   -0.73520959    1.97098868   -0.68185374   -0.34783247   -0.48460974    1.41922528 
   0.16726850    0.02999667   -0.07477638    0.00830700   -0.04153448   -0.27463296    0.06849388   -0.35098536   -0.12022080 
  -0.06963348    0.01558921   -0.00613146    0.02504955    0.01375001    0.06313090    0.00576649    0.04532146    0.05866378 
  -0.00379968    0.04543703    0.28361107    0.00795165    0.08473723    0.05711232    0.16283449    0.07055949   -0.32961292 
  -0.00266603   -0.01890183   -0.01156496   -0.03264365    0.04368080   -0.00924390   -0.08087205    0.06632151    0.05665079 
   1.17546208   -0.00254295    0.08616520   -0.07303969    1.11106518    0.00435242    0.06576406    0.06652626    1.07191239 
   0.98402118    0.11382183   -0.08562334    0.25897640    1.17592747    0.08736470   -0.03371421   -0.04345275    1.07546481 
   0.99076130   -0.11397071   -0.08226376   -0.26180658    1.17219123   -0.09807278   -0.02696379    0.04400054    1.08088514 
   1.17457071   -0.00081330    0.08263624    0.06878572    1.10965685   -0.00320493    0.06648375   -0.06723747    1.07695946 
   0.03139927    0.00351902    0.00362559    0.03313264   -0.00958335    0.13817505   -0.02563728    0.17608828   -0.11732940 
   0.01818899    0.11013842    0.08053826    0.05066837   -0.10212815   -0.05140651    0.08556276   -0.12055010    0.06223481 
  -0.01634453   -0.10878998   -0.07687630   -0.07528440    0.04013040   -0.08703893   -0.02207741   -0.05049444   -0.01509408 
   0.06498737    0.03598178   -0.08114256    0.00116396   -0.01597512    0.09883300   -0.04769570    0.19269511   -0.16347041 
  -0.06664592   -0.04481072    0.08568188   -0.04635426    0.11347837    0.02391886    0.02216229   -0.00050225    0.05125479 
   0.06301140    0.05261968    0.00528206    0.10408418   -0.12052659   -0.07861760    0.03340696   -0.13451265    0.07119869 
  -0.02098555   -0.03133491    0.00562469   -0.07170737   -0.03403176   -0.03601112    0.04740004   -0.03362887    0.04618659 
  -0.01245181    0.02923217   -0.09611144    0.07647750    0.06916882    0.09311534   -0.07918618    0.06395206   -0.01640688 
  -0.06216769    0.04986824    0.08475839    0.04331195    0.12407131   -0.01333575    0.03672350    0.00791880    0.03949895 
   0.04580111   -0.05236670   -0.00296560   -0.09773733   -0.13272599    0.08290694    0.02057711    0.14380243    0.09648110 
   0.07593606   -0.00894639   -0.06910143    0.02931173   -0.00298763   -0.07996561   -0.03586788   -0.17790549   -0.11818728 
  -0.02833006    0.02671411    0.00219788    0.07231454   -0.02775103    0.03349428    0.04218366    0.03818930    0.04239393 
  -0.00598738   -0.03558195   -0.08878092   -0.07554395    0.06623455   -0.10531786   -0.06256849   -0.07267748   -0.01485819 
  -0.02700745    0.11857454   -0.08720071    0.07943147    0.05019440    0.08226500   -0.03334085    0.04558223   -0.00568081 
   0.03279854   -0.01741280   -0.00799618   -0.05126111   -0.01372356   -0.10144545   -0.03896792   -0.15303057   -0.04837190 
   0.03618069   -0.08956881    0.09942990   -0.03786459   -0.08043182    0.07200809    0.08759762    0.11516142    0.05928113 