  80   80
1 1
    22.514564771429853    15.543213230458621    21.060160645008761
    15.543213151150386    20.536735294117506    13.432607687553405
    21.060160794677721    13.432607533432066    33.086781296156609
1 2
    -0.285744623539965    -0.311132687581921    -0.812550486777138
    -0.311132687581416    -0.135340318831121    -0.578566092972400
    -0.812550486775045    -0.578566092974909    -1.236093485672766
1 3
    -0.973311929015798    -0.149020694320945     0.093193527752800
    -0.119013597982046     0.238660288983562     0.014933427824289
    -0.199073657603111    -0.039805570167299     0.399526036554497
1 4
    -0.031028068370838     0.054715878683047     0.115260801243062
     0.156271319932979     0.280406648501565    -0.092706722058716
     0.527594899415117     0.249890565211243    -0.400924591089994
1 5
    -0.097503128715408    -0.125252035658549     0.031981994283177
     0.164839753050484    -0.076970317876078     0.088747274460253
     0.076362341623899    -0.002871866205105     0.469574620567702
1 6
    -0.109428420425211     0.053865260173312     0.088801639389918
    -0.018978155073630     0.218912433673754     0.261303773612248
     0.043021181870209     0.299301639190573     0.220626436617381
1 7
     0.025395812600229    -0.068850712302889    -0.034170523944139
     0.040324408595753    -0.136672006625268    -0.058299972615004
     0.032966735960358    -0.163512063189583    -0.064019566981145
1 8
    -0.207917175911848     0.321927616474520     0.132581641211989
     0.109011525648169    -0.360933543235250    -0.096551359993892
    -0.085098478022363    -0.054590592734115     0.132658077651293
1 9
    -1.749902471603092    -5.568578550238518    -2.152747687156122
    -6.017236599893591    -5.151455167216563    -4.213156335172707
    -2.283363836087514    -4.123443617102851     2.190245151763627
1 10
    -0.138140879000380    -0.191589889068709    -0.049940964450916
    -0.064702318305537    -0.132227735582811    -0.049664348878138
    -0.214234065351096    -0.368034998175097    -0.072612526789431
1 11
     0.098333000063100     0.211190738207209    -0.040322448613046
     0.099733618164637    -0.321356225931743     0.472220381475715
     0.017253905969483     0.590652359476146    -0.242662843379132
1 12
     0.018053336329772    -0.419950863015773     0.163729594681718
    -0.064696619631856    -0.728142542971035     0.201782073934255
    -0.011085828013168    -0.428868509428052     0.343239542335961
1 13
    -0.024305499305519     0.010349744456544    -0.015895947714602
     0.086155990792310    -0.195487759833323     0.018610489630932
    -0.110845667323865     0.173006942826030    -0.035420895033699
1 14
     0.173308989353105    -0.253208419668595     0.047772745348225
     0.253269195968498    -0.477074489363080     0.010813293153765
     0.144904811825084    -0.247067628434603     0.102028125918265
1 15
     0.007045867109652    -0.040769670142705     0.012555066321345
     0.038352992844540    -0.097335440228760     0.047391501116209
     0.016176460909561    -0.057934412817483     0.027438998664743
1 16
    -0.157691561473795     0.005615787460781    -0.024287669272410
    -0.010930511877552    -0.236738123784872     0.095585801028854
    -0.027815322784578    -0.094970590102436     0.138458614858829
1 17
     0.087904562883799    -0.756266848518857    -2.083991646676573
     0.278378890798790     0.886480609330679     0.577617722921335
    -2.818188589230329    -1.178772621412992    -3.109958263447019
1 18
    -0.023172883985773    -0.000404778837539    -0.022147052089617
    -0.016197302859273    -0.021306164522266    -0.018535950205760
    -0.025445404499437     0.018731397982147    -0.050365063189764
1 19
    -0.362558820259237    -0.010090283490338    -0.118552025931354
    -0.111865848302696    -0.057400969351376     0.124602827425825
    -0.446691105592817    -0.043501574736630     0.060547236471566
1 20
    -0.020841175123568     0.004623705082071     0.011246707200487
    -0.024689334055418     0.017938952232791    -0.006436250041802
    -0.022431653091696    -0.005703139919378     0.035113595676243
1 21
     0.141672443575530     0.197631272222492    -0.255477323553413
    -0.025052377143562    -0.087305999046708     0.209849470455047
    -0.005985373183476     0.701600458696558    -0.513029831625848
1 22
    -0.003672273835864     0.020643690392402    -0.008815146499844
    -0.010797033655351     0.027477377071065    -0.021416648698749
    -0.003016486503030     0.014635229112769     0.004026515073337
1 23
    -0.016002347987968    -0.322532760902030     0.024770784478009
     0.109712094274941    -0.099220890957166     0.094722807947341
    -0.101666411862046    -0.273868235245685    -0.216774931320794
1 24
    -0.003199767131701    -0.003773681318699    -0.005447276680250
     0.008895304363613     0.010819628808714     0.008779626580619
     0.056025868913122     0.030762127744835    -0.044288552855075
1 25
     0.239497975908045     0.292216065049089    -0.137883111656645
    -0.303186745975986    -0.036817575046948    -0.070817367904739
     0.013966676582149     0.092785686567482    -0.743682388503175
1 26
     0.042145664158579    -0.057499231000748    -0.022710961288479
    -0.118589458797607    -0.389410222135181    -0.173686553619547
    -0.343745614900121    -0.545246362907005     0.008862565392545
1 27
   -18.518571102273164    -8.225624639012429   -15.659320431037484
    -8.797428154870033   -14.267618268751338    -9.856618901899809
   -14.737483599704253    -8.167825044075499   -27.814813828015193
1 28
     0.323085651195798     0.234258541656995     0.268705064935453
     0.177084791389048     0.195494362236152     0.166530528312727
     0.475903607676179     0.486262232038222     0.462309217487524
1 29
    -0.022183463910316     0.084099582463698     0.019135153820686
    -0.060239954589119     0.159742996216517    -0.004848109108146
    -0.043592634717041     0.175725968264330     0.044486414639788
1 30
     0.173230331536126    -0.087337390985843     0.068048580743474
    -0.021329531860619     0.435125789056484     0.062431353844850
     0.008664973564786     0.149146200531298    -0.035801491162058
1 31
     0.044675687529004    -0.051186081851028     0.050531673234640
    -0.095389919215730     0.288862768452563    -0.160677027360816
     0.079146122485292    -0.294331690362913     0.240597855564254
1 32
    -0.146463529847605     0.355620271785447    -0.231316211220031
    -0.248110182214572     0.650006149130272    -0.334320890854044
    -0.119233902828466     0.367679634140093    -0.348290995594785
1 33
     0.005893478948254    -0.019354458615634    -0.007106673892176
     0.002534182585199     0.005942794103007     0.005761730759449
     0.009884474406586    -0.059006783559792    -0.018977225959324
1 34
     0.011226630578054     0.048192348201693    -0.040799841177885
     0.036532209665361     0.016631205604598    -0.036129222053966
     0.010392408119020     0.032417200022434    -0.023484227615046
1 35
    -0.000924699258965     0.008229967680715     0.011745877506903
    -0.002625503721435    -0.002887985036487    -0.000023270461429
     0.006081898083826     0.027401503709989     0.033237434551780
1 36
    -0.044992561248374    -0.023273840107997     0.021829335493558
    -0.047444975400951    -0.039378710327307     0.017357008449832
    -0.021918863504367     0.010285364129862     0.022359599562527
1 37
    -0.004109530896114     0.005629172347165    -0.026043540607747
     0.001443914480217    -0.028101200493578     0.024400061742639
     0.017038877342544     0.012693802543528    -0.049743442332909
1 38
    -0.002746883631917    -0.002049206725690     0.031130943066703
    -0.002780102595924     0.014079340947820     0.014149800128048
     0.005426704938180    -0.005898126557756     0.053702120835761
1 39
     0.001923961210311     0.004252155195185     0.000694493264039
    -0.007112990875589    -0.013396013681375    -0.006876276855435
     0.011417264503409     0.027845298078470     0.015308496005142
1 40
     0.020785270369613     0.003946766697336    -0.005606378724520
    -0.015445846005017    -0.018124609867612    -0.014047950777001
     0.022357179445442     0.014695925154268    -0.003216944695016
1 41
     0.038382897663270     0.008334681361315    -0.035548041563998
    -0.011737740704479     0.039255147359410    -0.086409670474109
     0.032662803130423    -0.060125991619909    -0.110502984115124
1 42
    -0.006537213242332     0.058583344078686    -0.033594167991761
    -0.036309986795545     0.197452645092206    -0.016960742111109
    -0.019372007815171     0.078328019958340    -0.102559331036510
1 43
     0.029547940201966    -0.004496266802744     0.000489429589781
    -0.040572251105891     0.039272232807491     0.130633345127108
    -0.065389504139648     0.175183344242433     0.034676198292092
1 44
     0.735737233466811    -0.270758141926537    -0.175335933836134
     0.427439565049213    -0.369728075417404    -0.320445995020794
     0.428058855641158    -0.291448064758200    -0.514592838402140
1 45
    -0.467960632148397    -0.034378668477906    -0.298500511243135
    -0.308213571082787     0.515318759173504    -0.209877117858738
    -0.302248343691314    -0.089508884039808    -0.450063288190946
1 46
    -0.019218936656585     0.072680056742024     0.015745525186597
    -0.003235702369194     0.126503382231992     0.054353923726279
    -0.021535487881320     0.109269513687811    -0.033763597781705
1 47
    -1.010518983644675    -0.655593462665040    -0.312145283680212
    -0.857921700904889    -1.052527761358195    -0.369571740864140
    -0.145953987808174    -0.174572104767113    -0.529883667909448
1 48
    -0.534088115886297    -0.226619784418202     0.413449927045679
    -0.123066149098844    -0.734790640035122     0.418945727122354
     0.138506423787189     0.084138367326157    -1.039914050692395
1 49
     0.187474555254664     0.069546052064010    -0.012589585375736
     0.038480968838732     0.032879096419211     0.051220983822253
     0.076452081998906     0.029283319405212    -0.083269194338897
1 50
     0.002883243800449     0.004142174980826    -0.017803342013613
     0.004374316988938    -0.000373244302878    -0.011643331939176
    -0.002788980708041     0.015249305670694    -0.040280672577833
1 51
     0.006430499565185     0.000200040233291    -0.008102932343269
    -0.008423295541250     0.011590640924026     0.055741342102931
     0.024431469656165    -0.025202992079859    -0.026647849797275
1 52
     0.001773047239745    -0.001467077690123     0.000401041554759
     0.002510746534137    -0.000913082163210     0.004995066437539
     0.009489105063702    -0.006235375772180    -0.004162727914656
1 53
     0.150097383275411     0.121280170212849     0.000789267452995
     0.127228692233001     0.043436490886331    -0.009021129770411
    -0.001932287350977     0.009589205903319    -0.063143947117496
1 54
    -0.005824192845508    -0.006490087181742     0.005210748601189
     0.000585619986097    -0.010622721928606     0.004978302999749
    -0.008339453319608    -0.015779070871324     0.013909788922355
1 55
    -0.081380526246870    -0.005934693792813    -0.133798679778748
     0.039326042800208     0.113697453618008    -0.010748374581458
    -0.241866035658320    -0.095089956843261    -0.263836688418670
1 56
    -0.009854713949620     0.003113156233716    -0.017542359701898
    -0.006251064214535     0.001752689415450    -0.011095572346954
    -0.016421186369024     0.011284131685040    -0.041227738779707
1 57
     0.037999100183240    -0.015982545994678     0.007554132902734
     0.054700209620378    -0.040434280818151    -0.009719453274908
    -0.009105438294339    -0.014406437916606    -0.017817508448446
1 58
    -0.000152534622488    -0.001916352631990     0.000559490746936
     0.001122008248185    -0.001935641243305     0.004129502147611
     0.003104766821222     0.008756243350713     0.009487850548775
1 59
    -0.010701650020402     0.010571184920451     0.054814202570335
    -0.014769443008809     0.042991110593111     0.086460509498110
     0.036709907240995    -0.015407166490269     0.044860949117652
1 60
     0.002648597677006    -0.003198696136024     0.005414817362233
     0.006115869331517    -0.003655995853542     0.007847905796270
     0.007512559590363    -0.010741592063058     0.000198763864054
1 61
    -0.049530115102195     0.080623479463968     0.008707703170961
     0.032796166204744     0.133319675924377    -0.018324007265765
    -0.034380298470874     0.075702393132883    -0.015842536366331
1 62
     0.000329359019042    -0.005161958490720     0.010220823929170
     0.006443188909397     0.000606580195098    -0.012963944052246
     0.025808147765779    -0.007371727085532    -0.000236303945244
1 63
     0.020766921406001    -0.007185701440299     0.001808375481574
     0.050878563356485     0.057937672609030     0.080837968910873
    -0.054250117407892     0.091801292332647     0.061834545560066
1 64
    -0.012916533835532     0.008125984306087    -0.001255338748901
    -0.003675420212305     0.007587883574851     0.000027574889158
    -0.024211600704740     0.012243717146376    -0.004485533151980
1 65
     0.002121566865899     0.004477795094608     0.002728342186558
     0.000917298227268     0.009430441298990    -0.002481426643811
     0.004925577065579     0.005126371164315     0.005619357846917
1 66
    -0.001366832064298     0.047934402393533     0.006214017079166
     0.002975113593507     0.052311860697913     0.015169558353056
     0.002783300175379     0.039325159995572    -0.003186733491557
1 67
    -0.002459751801779     0.003120736210848     0.003045639979058
    -0.000881940292209     0.002172815495464     0.011423287292862
    -0.006850385265235     0.007874920153361     0.003015992717701
1 68
     0.000793727197614    -0.005096893961127     0.004608712121148
     0.004214346582294    -0.009300289533566     0.019936557461651
    -0.008220515178045     0.000253388459545     0.021526238131858
1 69
     0.005016827196742    -0.008016419927372    -0.006763814896365
    -0.000552932669951    -0.009812793234654    -0.001133917625976
     0.007741075315417    -0.016475504437294    -0.016891316067501
1 70
     0.018067709094373    -0.008340420264600    -0.008372259869988
     0.013481706656548    -0.011731330761204    -0.023098912099352
     0.011289532577661    -0.021915113788173    -0.005153323668047
1 71
    -0.001889103010036    -0.000179972685938    -0.001365700844613
    -0.001501654357797    -0.005035485061764    -0.006691326334585
    -0.008108751522417    -0.003299949889858     0.009954333259042
1 72
     0.013776785557155     0.002299180221382    -0.009072730653404
     0.018092357862398    -0.003960217223014    -0.006527290723323
    -0.004204770094369    -0.006478672845204    -0.025241870261322
1 73
     0.001594214791029    -0.005771239350561    -0.000010240191213
    -0.001651931636390    -0.007359291587790     0.010747909854416
    -0.004503098864886    -0.012564640481024     0.004981832036279
1 74
    -0.004395224900301     0.005571919216508     0.001916705343329
    -0.010815898673263    -0.001893112250052    -0.009988863863681
     0.000430427941022    -0.016165495376713     0.027472409014477
1 75
    -0.000430096030394     0.001525304702824     0.000586577330462
    -0.000225780734561     0.000996855181234    -0.003125431930519
    -0.004140961867844    -0.001903714436278    -0.001612327551127
1 76
     0.005936902253898     0.011721759029624    -0.005415725108473
     0.011547521178992     0.025068038008660     0.004931140986952
     0.001897474442285    -0.002022102755189    -0.014659165255535
1 77
    -0.004817266977236    -0.009150620064843    -0.002088372181851
     0.003092721079824    -0.007277487175092    -0.000045732654500
    -0.014325925935624    -0.022271752049403    -0.001246455024111
1 78
    -0.016050623035827    -0.012981664061033     0.004972277714988
    -0.009307366811359    -0.014150181461734    -0.014737136827660
    -0.012312022950237    -0.022119991442639     0.012922511164151
1 79
     0.002398229875626     0.006848324811600     0.005871585690976
    -0.002035236558545     0.005545820293004     0.011418129093978
     0.006095554538675     0.014118498899387     0.006134167926174
1 80
     0.001743929200939    -0.004003061487460     0.033737563971343
     0.002575370711634    -0.010571535562085     0.040959891186790
    -0.004022880078097     0.008457223824604     0.032987996707555
2 1
    -0.285744623539965    -0.311132687581921    -0.812550486777138
    -0.311132687581416    -0.135340318831121    -0.578566092972400
    -0.812550486775045    -0.578566092974909    -1.236093485672766
2 2
    22.514564771429853    15.543213230458621    21.060160645008761
    15.543213151150386    20.536735294117506    13.432607687553405
    21.060160794677721    13.432607533432066    33.086781296156609
2 3
    -0.031028068370838     0.054715878683047     0.115260801243062
     0.156271319932979     0.280406648501565    -0.092706722058716
     0.527594899415117     0.249890565211243    -0.400924591089994
2 4
    -0.973311929015798    -0.149020694320945     0.093193527752800
    -0.119013597982046     0.238660288983562     0.014933427824289
    -0.199073657603111    -0.039805570167299     0.399526036554497
2 5
    -0.109428420425211     0.053865260173312     0.088801639389918
    -0.018978155073630     0.218912433673754     0.261303773612248
     0.043021181870209     0.299301639190573     0.220626436617381
2 6
    -0.097503128715408    -0.125252035658549     0.031981994283177
     0.164839753050484    -0.076970317876078     0.088747274460253
     0.076362341623899    -0.002871866205105     0.469574620567702
2 7
    -0.207917175911848     0.321927616474520     0.132581641211989
     0.109011525648169    -0.360933543235250    -0.096551359993892
    -0.085098478022363    -0.054590592734115     0.132658077651293
2 8
     0.025395812600229    -0.068850712302889    -0.034170523944139
     0.040324408595753    -0.136672006625268    -0.058299972615004
     0.032966735960358    -0.163512063189583    -0.064019566981145
2 9
    -0.138140879000380    -0.191589889068709    -0.049940964450916
    -0.064702318305537    -0.132227735582811    -0.049664348878138
    -0.214234065351096    -0.368034998175097    -0.072612526789431
2 10
    -1.749902471603092    -5.568578550238518    -2.152747687156122
    -6.017236599893591    -5.151455167216563    -4.213156335172707
    -2.283363836087514    -4.123443617102851     2.190245151763627
2 11
     0.018053336329772    -0.419950863015773     0.163729594681718
    -0.064696619631856    -0.728142542971035     0.201782073934255
    -0.011085828013168    -0.428868509428052     0.343239542335961
2 12
     0.098333000063100     0.211190738207209    -0.040322448613046
     0.099733618164637    -0.321356225931743     0.472220381475715
     0.017253905969483     0.590652359476146    -0.242662843379132
2 13
     0.173308989353105    -0.253208419668595     0.047772745348225
     0.253269195968498    -0.477074489363080     0.010813293153765
     0.144904811825084    -0.247067628434603     0.102028125918265
2 14
    -0.024305499305519     0.010349744456544    -0.015895947714602
     0.086155990792310    -0.195487759833323     0.018610489630932
    -0.110845667323865     0.173006942826030    -0.035420895033699
2 15
    -0.157691561473795     0.005615787460781    -0.024287669272410
    -0.010930511877552    -0.236738123784872     0.095585801028854
    -0.027815322784578    -0.094970590102436     0.138458614858829
2 16
     0.007045867109652    -0.040769670142705     0.012555066321345
     0.038352992844540    -0.097335440228760     0.047391501116209
     0.016176460909561    -0.057934412817483     0.027438998664743
2 17
    -0.023172883985773    -0.000404778837539    -0.022147052089617
    -0.016197302859273    -0.021306164522266    -0.018535950205760
    -0.025445404499437     0.018731397982147    -0.050365063189764
2 18
     0.087904562883799    -0.756266848518857    -2.083991646676573
     0.278378890798790     0.886480609330679     0.577617722921335
    -2.818188589230329    -1.178772621412992    -3.109958263447019
2 19
    -0.020841175123568     0.004623705082071     0.011246707200487
    -0.024689334055418     0.017938952232791    -0.006436250041802
    -0.022431653091696    -0.005703139919378     0.035113595676243
2 20
    -0.362558820259237    -0.010090283490338    -0.118552025931354
    -0.111865848302696    -0.057400969351376     0.124602827425825
    -0.446691105592817    -0.043501574736630     0.060547236471566
2 21
    -0.003672273835864     0.020643690392402    -0.008815146499844
    -0.010797033655351     0.027477377071065    -0.021416648698749
    -0.003016486503030     0.014635229112769     0.004026515073337
2 22
     0.141672443575530     0.197631272222492    -0.255477323553413
    -0.025052377143562    -0.087305999046708     0.209849470455047
    -0.005985373183476     0.701600458696558    -0.513029831625848
2 23
    -0.003199767131701    -0.003773681318699    -0.005447276680250
     0.008895304363613     0.010819628808714     0.008779626580619
     0.056025868913122     0.030762127744835    -0.044288552855075
2 24
    -0.016002347987968    -0.322532760902030     0.024770784478009
     0.109712094274941    -0.099220890957166     0.094722807947341
    -0.101666411862046    -0.273868235245685    -0.216774931320794
2 25
     0.042145664158579    -0.057499231000748    -0.022710961288479
    -0.118589458797607    -0.389410222135181    -0.173686553619547
    -0.343745614900121    -0.545246362907005     0.008862565392545
2 26
     0.239497975908045     0.292216065049089    -0.137883111656645
    -0.303186745975986    -0.036817575046948    -0.070817367904739
     0.013966676582149     0.092785686567482    -0.743682388503175
2 27
     0.323085651195798     0.234258541656995     0.268705064935453
     0.177084791389048     0.195494362236152     0.166530528312727
     0.475903607676179     0.486262232038222     0.462309217487524
2 28
   -18.518571102273164    -8.225624639012429   -15.659320431037484
    -8.797428154870033   -14.267618268751338    -9.856618901899809
   -14.737483599704253    -8.167825044075499   -27.814813828015193
2 29
     0.173230331536126    -0.087337390985843     0.068048580743474
    -0.021329531860619     0.435125789056484     0.062431353844850
     0.008664973564786     0.149146200531298    -0.035801491162058
2 30
    -0.022183463910316     0.084099582463698     0.019135153820686
    -0.060239954589119     0.159742996216517    -0.004848109108146
    -0.043592634717041     0.175725968264330     0.044486414639788
2 31
    -0.146463529847605     0.355620271785447    -0.231316211220031
    -0.248110182214572     0.650006149130272    -0.334320890854044
    -0.119233902828466     0.367679634140093    -0.348290995594785
2 32
     0.044675687529004    -0.051186081851028     0.050531673234640
    -0.095389919215730     0.288862768452563    -0.160677027360816
     0.079146122485292    -0.294331690362913     0.240597855564254
2 33
     0.011226630578054     0.048192348201693    -0.040799841177885
     0.036532209665361     0.016631205604598    -0.036129222053966
     0.010392408119020     0.032417200022434    -0.023484227615046
2 34
     0.005893478948254    -0.019354458615634    -0.007106673892176
     0.002534182585199     0.005942794103007     0.005761730759449
     0.009884474406586    -0.059006783559792    -0.018977225959324
2 35
    -0.044992561248374    -0.023273840107997     0.021829335493558
    -0.047444975400951    -0.039378710327307     0.017357008449832
    -0.021918863504367     0.010285364129862     0.022359599562527
2 36
    -0.000924699258965     0.008229967680715     0.011745877506903
    -0.002625503721435    -0.002887985036487    -0.000023270461429
     0.006081898083826     0.027401503709989     0.033237434551780
2 37
    -0.002746883631917    -0.002049206725690     0.031130943066703
    -0.002780102595924     0.014079340947820     0.014149800128048
     0.005426704938180    -0.005898126557756     0.053702120835761
2 38
    -0.004109530896114     0.005629172347165    -0.026043540607747
     0.001443914480217    -0.028101200493578     0.024400061742639
     0.017038877342544     0.012693802543528    -0.049743442332909
2 39
     0.020785270369613     0.003946766697336    -0.005606378724520
    -0.015445846005017    -0.018124609867612    -0.014047950777001
     0.022357179445442     0.014695925154268    -0.003216944695016
2 40
     0.001923961210311     0.004252155195185     0.000694493264039
    -0.007112990875589    -0.013396013681375    -0.006876276855435
     0.011417264503409     0.027845298078470     0.015308496005142
2 41
    -0.006537213242332     0.058583344078686    -0.033594167991761
    -0.036309986795545     0.197452645092206    -0.016960742111109
    -0.019372007815171     0.078328019958340    -0.102559331036510
2 42
     0.038382897663270     0.008334681361315    -0.035548041563998
    -0.011737740704479     0.039255147359410    -0.086409670474109
     0.032662803130423    -0.060125991619909    -0.110502984115124
2 43
     0.735737233466811    -0.270758141926537    -0.175335933836134
     0.427439565049213    -0.369728075417404    -0.320445995020794
     0.428058855641158    -0.291448064758200    -0.514592838402140
2 44
     0.029547940201966    -0.004496266802744     0.000489429589781
    -0.040572251105891     0.039272232807491     0.130633345127108
    -0.065389504139648     0.175183344242433     0.034676198292092
2 45
    -0.019218936656585     0.072680056742024     0.015745525186597
    -0.003235702369194     0.126503382231992     0.054353923726279
    -0.021535487881320     0.109269513687811    -0.033763597781705
2 46
    -0.467960632148397    -0.034378668477906    -0.298500511243135
    -0.308213571082787     0.515318759173504    -0.209877117858738
    -0.302248343691314    -0.089508884039808    -0.450063288190946
2 47
    -0.534088115886297    -0.226619784418202     0.413449927045679
    -0.123066149098844    -0.734790640035122     0.418945727122354
     0.138506423787189     0.084138367326157    -1.039914050692395
2 48
    -1.010518983644675    -0.655593462665040    -0.312145283680212
    -0.857921700904889    -1.052527761358195    -0.369571740864140
    -0.145953987808174    -0.174572104767113    -0.529883667909448
2 49
     0.002883243800449     0.004142174980826    -0.017803342013613
     0.004374316988938    -0.000373244302878    -0.011643331939176
    -0.002788980708041     0.015249305670694    -0.040280672577833
2 50
     0.187474555254664     0.069546052064010    -0.012589585375736
     0.038480968838732     0.032879096419211     0.051220983822253
     0.076452081998906     0.029283319405212    -0.083269194338897
2 51
     0.001773047239745    -0.001467077690123     0.000401041554759
     0.002510746534137    -0.000913082163210     0.004995066437539
     0.009489105063702    -0.006235375772180    -0.004162727914656
2 52
     0.006430499565185     0.000200040233291    -0.008102932343269
    -0.008423295541250     0.011590640924026     0.055741342102931
     0.024431469656165    -0.025202992079859    -0.026647849797275
2 53
    -0.005824192845508    -0.006490087181742     0.005210748601189
     0.000585619986097    -0.010622721928606     0.004978302999749
    -0.008339453319608    -0.015779070871324     0.013909788922355
2 54
     0.150097383275411     0.121280170212849     0.000789267452995
     0.127228692233001     0.043436490886331    -0.009021129770411
    -0.001932287350977     0.009589205903319    -0.063143947117496
2 55
    -0.009854713949620     0.003113156233716    -0.017542359701898
    -0.006251064214535     0.001752689415450    -0.011095572346954
    -0.016421186369024     0.011284131685040    -0.041227738779707
2 56
    -0.081380526246870    -0.005934693792813    -0.133798679778748
     0.039326042800208     0.113697453618008    -0.010748374581458
    -0.241866035658320    -0.095089956843261    -0.263836688418670
2 57
    -0.000152534622488    -0.001916352631990     0.000559490746936
     0.001122008248185    -0.001935641243305     0.004129502147611
     0.003104766821222     0.008756243350713     0.009487850548775
2 58
     0.037999100183240    -0.015982545994678     0.007554132902734
     0.054700209620378    -0.040434280818151    -0.009719453274908
    -0.009105438294339    -0.014406437916606    -0.017817508448446
2 59
     0.002648597677006    -0.003198696136024     0.005414817362233
     0.006115869331517    -0.003655995853542     0.007847905796270
     0.007512559590363    -0.010741592063058     0.000198763864054
2 60
    -0.010701650020402     0.010571184920451     0.054814202570335
    -0.014769443008809     0.042991110593111     0.086460509498110
     0.036709907240995    -0.015407166490269     0.044860949117652
2 61
     0.000329359019042    -0.005161958490720     0.010220823929170
     0.006443188909397     0.000606580195098    -0.012963944052246
     0.025808147765779    -0.007371727085532    -0.000236303945244
2 62
    -0.049530115102195     0.080623479463968     0.008707703170961
     0.032796166204744     0.133319675924377    -0.018324007265765
    -0.034380298470874     0.075702393132883    -0.015842536366331
2 63
    -0.012916533835532     0.008125984306087    -0.001255338748901
    -0.003675420212305     0.007587883574851     0.000027574889158
    -0.024211600704740     0.012243717146376    -0.004485533151980
2 64
     0.020766921406001    -0.007185701440299     0.001808375481574
     0.050878563356485     0.057937672609030     0.080837968910873
    -0.054250117407892     0.091801292332647     0.061834545560066
2 65
    -0.001366832064298     0.047934402393533     0.006214017079166
     0.002975113593507     0.052311860697913     0.015169558353056
     0.002783300175379     0.039325159995572    -0.003186733491557
2 66
     0.002121566865899     0.004477795094608     0.002728342186558