# epsilon and Z* of atoms 1 13 25 37 49
   2.58478520    0.00000000   -0.00000000    0.00000000    2.58478520   -0.00000000   -0.00000000   -0.00000000    2.09537843 
   1.33583298   -0.06393693    0.00000000   -0.05273581    0.69078148    0.00000000    0.00000000    0.00000000    1.05452735 
  -1.47683291    0.14330938    0.00000000   -0.27428711   -0.83123895    0.00000000    0.00000000    0.00000000   -0.40447292 
  -1.12334020    0.49023257    0.00000000   -0.00464943   -0.56726194    0.00000000    0.00000000    0.00000000   -0.60385505 
   2.11968734   -0.61198543    0.00000000    0.28837253    1.46533277    0.00000000    0.00000000    0.00000000    0.42109802 
   0.23357908    0.04234533    0.00000000    0.04821332    0.17491243    0.00000000    0.00000000    0.00000000    0.29744952 