  60   60
1 1
    24.550884965355774     4.656703242267188     0.000000000000000
     4.656703292690530    10.016654526174166     0.000000000000000
     0.000000000000000     0.000000000000000     2.520623022553994
1 2
     0.067876195630472     0.010638914953604     0.000000000000000
    -0.010638866515834    -0.026494155082727     0.000000000000000
     0.000000000000000     0.000000000000000    -0.441946751515702
1 3
    -0.015578739814579     0.023806681514685     0.000000000000000
     0.009030822269788     0.012339436373884     0.000000000000000
     0.000000000000000     0.000000000000000     0.014167620695739
1 4
    -0.019012156255451    -0.023856146429218     0.000000000000000
    -0.003089647975600    -0.003455023407064     0.000000000000000
     0.000000000000000     0.000000000000000    -0.002111148612103
1 5
    -0.018604989585792     0.021257027728802     0.000000000000000
     0.008924933133913    -0.001179459759069     0.000000000000000
     0.000000000000000     0.000000000000000    -0.005441653603781
1 6
    -0.034250726627456    -0.023976263326348     0.000000000000000
    -0.002101069157860    -0.028451129996256     0.000000000000000
     0.000000000000000     0.000000000000000    -0.011000293498355
1 7
    -0.008859163691899    -0.027686299433587     0.000000000000000
    -0.012909901846920     0.005619381562757     0.000000000000000
     0.000000000000000     0.000000000000000     0.014167620516121
1 8
    -0.016546150132045     0.015821417676731     0.000000000000000
     0.009171495051343    -0.002116509713875     0.000000000000000
     0.000000000000000     0.000000000000000    -0.000653217968193
1 9
    -0.014754674047925    -0.015079348698746     0.000000000000000
    -0.004191611021052    -0.003628697240899     0.000000000000000
     0.000000000000000     0.000000000000000     0.004686586843578
1 10
    -0.040434262479470     1.022504629737502     0.000000000000000
     1.022504598735396    -2.391111834022291     0.000000000000000
     0.000000000000000     0.000000000000000     0.231613324229396
1 11
    -0.041192807143775     0.019968183932826     0.000000000000000
    -0.001907827376332    -0.021508985387545     0.000000000000000
     0.000000000000000     0.000000000000000    -0.011000297789556
1 12
     0.024453286435747    -0.010220239501357     0.000000000000000
     0.010220298241168     0.098910738450273     0.000000000000000
     0.000000000000000     0.000000000000000     0.171142530256055
1 13
     0.447874360478923    -0.111134315872089     0.000000000000000
     0.237579642410488    -0.194756908061672     0.000000000000000
     0.000000000000000     0.000000000000000     0.133790883292884
1 14
     0.100380749419950     0.036453005573006     0.000000000000000
    -0.083552177989944    -0.039354754401984     0.000000000000000
     0.000000000000000     0.000000000000000     0.044847626716553
1 15
    -0.182080444399649    -0.150945180166155     0.000000000000000
     0.297138466138363    -0.202135991007243     0.000000000000000
     0.000000000000000     0.000000000000000    -0.095173739497951
1 16
    -0.002465109123016    -0.027015790922179     0.000000000000000
    -0.008194552475324    -0.066358861904974     0.000000000000000
     0.000000000000000     0.000000000000000    -0.054520685853973
1 17
     0.043185119597486    -0.053761790590818     0.000000000000000
    -0.006900447480580    -0.016733410261023     0.000000000000000
     0.000000000000000     0.000000000000000     0.000102978870345
1 18
     0.268122546830977     0.116716952173155     0.000000000000000
     0.176521532660055    -0.255653108114966     0.000000000000000
     0.000000000000000     0.000000000000000     0.201027448978335
1 19
     0.062870587476509    -0.008871990718927     0.000000000000000
    -0.038600707239551    -0.039675554921898     0.000000000000000
     0.000000000000000     0.000000000000000    -0.034099919599799
1 20
     0.023537265777918     0.012651716446865     0.000000000000000
     0.001719586200121    -0.026516803550699     0.000000000000000
     0.000000000000000     0.000000000000000     0.010911456515636
1 21
     0.059113668878554     0.111152505780403     0.000000000000000
    -0.032903313873742    -0.105103978113651     0.000000000000000
     0.000000000000000     0.000000000000000     0.043192930646029
1 22
     0.178426971441560     0.289897473225875     0.000000000000000
     0.189824512616267    -0.219368866290024     0.000000000000000
     0.000000000000000     0.000000000000000     0.176351270418397
1 23
    -8.717363560585280    -2.244451470801346     0.000000000000000
    -2.201902894284605    -3.464411052937468     0.000000000000000
     0.000000000000000     0.000000000000000    -1.576150922995014
1 24
     0.036192700034088    -0.002393670907270     0.000000000000000
    -0.064096884687421    -0.022597047346619     0.000000000000000
     0.000000000000000     0.000000000000000     0.002573585916676
1 25
   -11.180153444853760    -2.920851257693857     0.000000000000000
    -2.434525178652399    -3.597137054836232     0.000000000000000
     0.000000000000000     0.000000000000000    -0.892921660099657
1 26
     0.082298192612562     0.069165452298057     0.000000000000000
    -0.112222567205897    -0.157999812500235     0.000000000000000
     0.000000000000000     0.000000000000000    -0.056599917904679
1 27
     0.032366890585950    -0.133991555317008     0.000000000000000
    -0.019498792344077    -0.009573949115428     0.000000000000000
     0.000000000000000     0.000000000000000     0.012481834605528
1 28
     0.022866909108660    -0.014971377348015     0.000000000000000
     0.000091834954315    -0.019961772568201     0.000000000000000
     0.000000000000000     0.000000000000000    -0.000741407746892
1 29
     0.057747426715973    -0.022060298939476     0.000000000000000
    -0.026373914505154    -0.003470118735424     0.000000000000000
     0.000000000000000     0.000000000000000    -0.004993401788030
1 30
     0.092770813319235     0.011671113778876     0.000000000000000
     0.013710950796509    -0.005966310518286     0.000000000000000
     0.000000000000000     0.000000000000000     0.001353565359045
1 31
     0.098741802500987    -0.015461262953716     0.000000000000000
     0.034121855044161    -0.030015702891086     0.000000000000000
     0.000000000000000     0.000000000000000    -0.012331587091239
1 32
     0.060385222588628     0.001204654797617     0.000000000000000
    -0.025843034483807    -0.004208789559025     0.000000000000000
     0.000000000000000     0.000000000000000     0.009747996019547
1 33
     0.001444559845651     0.067496057363703     0.000000000000000
    -0.001128927632565    -0.013259414194459     0.000000000000000
     0.000000000000000     0.000000000000000     0.002487833977471
1 34
    -0.143423958425154     0.049711891771059     0.000000000000000
    -0.174053033366686    -0.418806711516769     0.000000000000000
     0.000000000000000     0.000000000000000    -0.036655224760730
1 35
    -0.617885660056160     0.033942267820878     0.000000000000000
     0.602400452983410    -0.126447653517621     0.000000000000000
     0.000000000000000     0.000000000000000    -0.071938846906315
1 36
     0.020640798389461    -0.026433000389824     0.000000000000000
    -0.086144230837392    -0.094664075228465     0.000000000000000
     0.000000000000000     0.000000000000000    -0.043451081704935
1 37
    -1.988788066506210     0.628896013601733     0.000000000000000
     0.227668942554786     0.897330634008643     0.000000000000000
     0.000000000000000     0.000000000000000    -0.125499845294083
1 38
    -0.166209213037606    -0.084403182554750     0.000000000000000
     0.200377245150561     0.233475362631504     0.000000000000000
     0.000000000000000     0.000000000000000    -0.204031034603501
1 39
    -0.200594012815868     0.172098983213704     0.000000000000000
     0.037842840509403     0.015244479777149     0.000000000000000
     0.000000000000000     0.000000000000000     0.001216201502359
1 40
    -0.063647312211702     0.038291190881086     0.000000000000000
     0.009327322531472     0.028257616025484     0.000000000000000
     0.000000000000000     0.000000000000000     0.010229180454630
1 41
    -0.072412392641285     0.042080208755393     0.000000000000000
     0.044679910588807     0.032856701820182     0.000000000000000
     0.000000000000000     0.000000000000000     0.002807025539901
1 42
    -0.181115026280455    -0.094219037492716     0.000000000000000
    -0.070809273590637     0.075779718623301     0.000000000000000
     0.000000000000000     0.000000000000000     0.000922465863372
1 43
    -0.159431565582964     0.062752405970394     0.000000000000000
    -0.010163784826080     0.108192015008134     0.000000000000000
     0.000000000000000     0.000000000000000     0.152989758768367
1 44
    -0.105210966888424    -0.041861288685191     0.000000000000000
     0.050420644212625     0.041722565055776     0.000000000000000
     0.000000000000000     0.000000000000000    -0.020023694355057
1 45
    -0.083839159380602    -0.106446809658540     0.000000000000000
    -0.003842812111132     0.014931081036911     0.000000000000000
     0.000000000000000     0.000000000000000     0.014355925856520
1 46
    -0.379344213081106    -1.489248722038015     0.000000000000000
    -1.534148882593933    -0.343201718777283     0.000000000000000
     0.000000000000000     0.000000000000000     0.008315909088608
1 47
    -1.772517119417903     0.214353545924366     0.000000000000000
     0.327316293866410     0.894939163019500     0.000000000000000
     0.000000000000000     0.000000000000000     0.010147553165728
1 48
    -0.035785748852832     0.049246292290896     0.000000000000000
     0.095809195816493     0.125500884500826     0.000000000000000
     0.000000000000000     0.000000000000000     0.013538707255133
1 49
    -0.354049443838165    -0.289951616595872     0.000000000000000
    -1.036382586683757    -0.099164854426581     0.000000000000000
     0.000000000000000     0.000000000000000    -0.033835907000814
1 50
    -0.017196834106569     0.010915145991409     0.000000000000000
     0.010985888839592    -0.001796063612746     0.000000000000000
     0.000000000000000     0.000000000000000    -0.001575187590161
1 51
     0.017047362993676     0.015489868940295     0.000000000000000
     0.003105254623548    -0.034679561790905     0.000000000000000
     0.000000000000000     0.000000000000000    -0.009069537419005
1 52
     0.018297719435689    -0.002710850420792     0.000000000000000
     0.005652103010065     0.001896955706113     0.000000000000000
     0.000000000000000     0.000000000000000     0.001459402115280
1 53
    -0.002283512555045    -0.003701785019824     0.000000000000000
     0.000423899099258    -0.000779106854157     0.000000000000000
     0.000000000000000     0.000000000000000     0.000897227482114
1 54
    -0.006750395989811     0.008312075050893     0.000000000000000
    -0.002307277743090    -0.001123132779046     0.000000000000000
     0.000000000000000     0.000000000000000    -0.003740986066966
1 55
     0.001155226324656     0.013436162670807     0.000000000000000
     0.007049612586244    -0.000274538285719     0.000000000000000
     0.000000000000000     0.000000000000000    -0.009455656835925
1 56
    -0.003019842825308    -0.006281153786763     0.000000000000000
    -0.000320148277101    -0.000738220643095     0.000000000000000
     0.000000000000000     0.000000000000000     0.001682924639685
1 57
     0.011503520515537     0.000925607745357     0.000000000000000
     0.003076694399097    -0.000004403222568     0.000000000000000
     0.000000000000000     0.000000000000000    -0.000960442438537
1 58
    -0.075729354982442    -0.009027527898670     0.000000000000000
    -0.018442513830736    -0.075037064443746     0.000000000000000
     0.000000000000000     0.000000000000000     0.002641825264211
1 59
     0.263285091642633     0.121001942170335     0.000000000000000
    -0.282633508761973    -0.204880835365366     0.000000000000000
     0.000000000000000     0.000000000000000     0.069808661537880
1 60
    -0.009247156716066     0.007582099360721     0.000000000000000
     0.012078607870549    -0.000549785879060     0.000000000000000
     0.000000000000000     0.000000000000000     0.001561328102594
2 1
     0.067876195630472    -0.010638914953604     0.000000000000000
     0.010638866515834    -0.026494155082727     0.000000000000000
     0.000000000000000     0.000000000000000    -0.441946751515702
2 2
    24.550884965355767    -4.656703242267185     0.000000000000000
    -4.656703292690531    10.016654526174168     0.000000000000000
     0.000000000000000     0.000000000000000     2.520623022553994
2 3
    -0.014754674047925     0.015079348698746     0.000000000000000
     0.004191611021052    -0.003628697240899     0.000000000000000
     0.000000000000000     0.000000000000000     0.004686586843578
2 4
    -0.041192807143775    -0.019968183932826     0.000000000000000
     0.001907827376332    -0.021508985387545     0.000000000000000
     0.000000000000000     0.000000000000000    -0.011000297789556
2 5
    -0.034250726627456     0.023976263326348     0.000000000000000
     0.002101069157860    -0.028451129996256     0.000000000000000
     0.000000000000000     0.000000000000000    -0.011000293498355
2 6
    -0.018604989585792    -0.021257027728802     0.000000000000000
    -0.008924933133913    -0.001179459759069     0.000000000000000
     0.000000000000000     0.000000000000000    -0.005441653603781
2 7
    -0.016546150132045    -0.015821417676731     0.000000000000000
    -0.009171495051343    -0.002116509713875     0.000000000000000
     0.000000000000000     0.000000000000000    -0.000653217968193
2 8
    -0.008859163691899     0.027686299433587     0.000000000000000
     0.012909901846920     0.005619381562757     0.000000000000000
     0.000000000000000     0.000000000000000     0.014167620516121
2 9
    -0.015578739814579    -0.023806681514685     0.000000000000000
    -0.009030822269788     0.012339436373884     0.000000000000000
     0.000000000000000     0.000000000000000     0.014167620695739
2 10
     0.024453286435747     0.010220239501357     0.000000000000000
    -0.010220298241168     0.098910738450273     0.000000000000000
     0.000000000000000     0.000000000000000     0.171142530256055
2 11
    -0.019012156255451     0.023856146429218     0.000000000000000
     0.003089647975600    -0.003455023407064     0.000000000000000
     0.000000000000000     0.000000000000000    -0.002111148612103
2 12
    -0.040434262479471    -1.022504629737502     0.000000000000000
    -1.022504598735395    -2.391111834022292     0.000000000000000
     0.000000000000000     0.000000000000000     0.231613324229396
2 13
     0.100380749419950    -0.036453005573006     0.000000000000000
     0.083552177989944    -0.039354754401984     0.000000000000000
     0.000000000000000     0.000000000000000     0.044847626716553
2 14
     0.447874360478923     0.111134315872089     0.000000000000000
    -0.237579642410489    -0.194756908061672     0.000000000000000
     0.000000000000000     0.000000000000000     0.133790883292884
2 15
     0.059113668878554    -0.111152505780403     0.000000000000000
     0.032903313873742    -0.105103978113651     0.000000000000000
     0.000000000000000     0.000000000000000     0.043192930646029
2 16
    -8.717363560585280     2.244451470801346     0.000000000000000
     2.201902894284606    -3.464411052937469     0.000000000000000
     0.000000000000000     0.000000000000000    -1.576150922995014
2 17
     0.268122546830977    -0.116716952173155     0.000000000000000
    -0.176521532660055    -0.255653108114966     0.000000000000000
     0.000000000000000     0.000000000000000     0.201027448978335
2 18
     0.043185119597486     0.053761790590818     0.000000000000000
     0.006900447480580    -0.016733410261023     0.000000000000000
     0.000000000000000     0.000000000000000     0.000102978870345
2 19
     0.023537265777918    -0.012651716446865     0.000000000000000
    -0.001719586200121    -0.026516803550699     0.000000000000000
     0.000000000000000     0.000000000000000     0.010911456515636
2 20
     0.062870587476509     0.008871990718927     0.000000000000000
     0.038600707239551    -0.039675554921898     0.000000000000000
     0.000000000000000     0.000000000000000    -0.034099919599799
2 21
    -0.182080444399650     0.150945180166155     0.000000000000000
    -0.297138466138363    -0.202135991007243     0.000000000000000
     0.000000000000000     0.000000000000000    -0.095173739497951
2 22
     0.036192700034088     0.002393670907270     0.000000000000000
     0.064096884687421    -0.022597047346619     0.000000000000000
     0.000000000000000     0.000000000000000     0.002573585916676
2 23
    -0.002465109123016     0.027015790922179     0.000000000000000
     0.008194552475324    -0.066358861904974     0.000000000000000
     0.000000000000000     0.000000000000000    -0.054520685853973
2 24
     0.178426971441560    -0.289897473225875     0.000000000000000
    -0.189824512616267    -0.219368866290024     0.000000000000000
     0.000000000000000     0.000000000000000     0.176351270418397
2 25
     0.082298192612562    -0.069165452298057     0.000000000000000
     0.112222567205897    -0.157999812500235     0.000000000000000
     0.000000000000000     0.000000000000000    -0.056599917904679
2 26
   -11.180153444853756     2.920851257693857     0.000000000000000
     2.434525178652398    -3.597137054836233     0.000000000000000
     0.000000000000000     0.000000000000000    -0.892921660099657
2 27
     0.001444559845651    -0.067496057363703     0.000000000000000
     0.001128927632565    -0.013259414194459     0.000000000000000
     0.000000000000000     0.000000000000000     0.002487833977471
2 28
    -0.617885660056161    -0.033942267820878     0.000000000000000
    -0.602400452983410    -0.126447653517621     0.000000000000000
     0.000000000000000     0.000000000000000    -0.071938846906315
2 29
     0.092770813319235    -0.011671113778876     0.000000000000000
    -0.013710950796509    -0.005966310518286     0.000000000000000
     0.000000000000000     0.000000000000000     0.001353565359045
2 30
     0.057747426715973     0.022060298939476     0.000000000000000
     0.026373914505154    -0.003470118735424     0.000000000000000
     0.000000000000000     0.000000000000000    -0.004993401788030
2 31
     0.060385222588628    -0.001204654797617     0.000000000000000
     0.025843034483807    -0.004208789559025     0.000000000000000
     0.000000000000000     0.000000000000000     0.009747996019547
2 32
     0.098741802500987     0.015461262953716     0.000000000000000
    -0.034121855044161    -0.030015702891086     0.000000000000000
     0.000000000000000     0.000000000000000    -0.012331587091239
2 33
     0.032366890585950     0.133991555317008     0.000000000000000
     0.019498792344077    -0.009573949115428     0.000000000000000
     0.000000000000000     0.000000000000000     0.012481834605528
2 34
     0.020640798389461     0.026433000389824     0.000000000000000
     0.086144230837392    -0.094664075228465     0.000000000000000
     0.000000000000000     0.000000000000000    -0.043451081704935
2 35
     0.022866909108660     0.014971377348015     0.000000000000000
    -0.000091834954315    -0.019961772568201     0.000000000000000
     0.000000000000000     0.000000000000000    -0.000741407746892
2 36
    -0.143423958425154    -0.049711891771059     0.000000000000000
     0.174053033366686    -0.418806711516769     0.000000000000000
     0.000000000000000     0.000000000000000    -0.036655224760730
2 37
    -0.166209213037606     0.084403182554750     0.000000000000000
    -0.200377245150561     0.233475362631504     0.000000000000000
     0.000000000000000     0.000000000000000    -0.204031034603501
2 38
    -1.988788066506210    -0.628896013601733     0.000000000000000
    -0.227668942554786     0.897330634008643     0.000000000000000
     0.000000000000000     0.000000000000000    -0.125499845294083
2 39
    -0.083839159380602     0.106446809658540     0.000000000000000
     0.003842812111132     0.014931081036911     0.000000000000000
     0.000000000000000     0.000000000000000     0.014355925856520
2 40
    -1.772517119417903    -0.214353545924366     0.000000000000000
    -0.327316293866409     0.894939163019500     0.000000000000000
     0.000000000000000     0.000000000000000     0.010147553165728
2 41
    -0.181115026280455     0.094219037492716     0.000000000000000
     0.070809273590637     0.075779718623301     0.000000000000000
     0.000000000000000     0.000000000000000     0.000922465863372
2 42
    -0.072412392641285    -0.042080208755393     0.000000000000000
    -0.044679910588807     0.032856701820182     0.000000000000000
     0.000000000000000     0.000000000000000     0.002807025539901
2 43
    -0.105210966888424     0.041861288685191     0.000000000000000
    -0.050420644212625     0.041722565055776     0.000000000000000
     0.000000000000000     0.000000000000000    -0.020023694355057
2 44
    -0.159431565582964    -0.062752405970394     0.000000000000000
     0.010163784826080     0.108192015008134     0.000000000000000
     0.000000000000000     0.000000000000000     0.152989758768367
2 45
    -0.200594012815868    -0.172098983213704     0.000000000000000
    -0.037842840509403     0.015244479777149     0.000000000000000
     0.000000000000000     0.000000000000000     0.001216201502359
2 46
    -0.035785748852832    -0.049246292290896     0.000000000000000
    -0.095809195816493     0.125500884500826     0.000000000000000
     0.000000000000000     0.000000000000000     0.013538707255133
2 47
    -0.063647312211702    -0.038291190881086     0.000000000000000
    -0.009327322531472     0.028257616025484     0.000000000000000
     0.000000000000000     0.000000000000000     0.010229180454630
2 48
    -0.379344213081106     1.489248722038014     0.000000000000000
     1.534148882593932    -0.343201718777283     0.000000000000000
     0.000000000000000     0.000000000000000     0.008315909088608
2 49
    -0.017196834106569    -0.010915145991409     0.000000000000000
    -0.010985888839592    -0.001796063612746     0.000000000000000
     0.000000000000000     0.000000000000000    -0.001575187590161
2 50
    -0.354049443838166     0.289951616595872     0.000000000000000
     1.036382586683757    -0.099164854426581     0.000000000000000
     0.000000000000000     0.000000000000000    -0.033835907000814
2 51
     0.011503520515537    -0.000925607745357     0.000000000000000
    -0.003076694399097    -0.000004403222568     0.000000000000000
     0.000000000000000     0.000000000000000    -0.000960442438537
2 52
     0.263285091642633    -0.121001942170335     0.000000000000000
     0.282633508761973    -0.204880835365366     0.000000000000000
     0.000000000000000     0.000000000000000     0.069808661537880
2 53
    -0.006750395989811    -0.008312075050893     0.000000000000000
     0.002307277743090    -0.001123132779046     0.000000000000000
     0.000000000000000     0.000000000000000    -0.003740986066966
2 54
    -0.002283512555045     0.003701785019824     0.000000000000000
    -0.000423899099258    -0.000779106854157     0.000000000000000
     0.000000000000000     0.000000000000000     0.000897227482114
2 55
    -0.003019842825308     0.006281153786763     0.000000000000000
     0.000320148277101    -0.000738220643095     0.000000000000000
     0.000000000000000     0.000000000000000     0.001682924639685
2 56
     0.001155226324656    -0.013436162670807     0.000000000000000
    -0.007049612586244    -0.000274538285719     0.000000000000000
     0.000000000000000     0.000000000000000    -0.009455656835925
2 57
     0.017047362993676    -0.015489868940295     0.000000000000000
    -0.003105254623548    -0.034679561790905     0.000000000000000
     0.000000000000000     0.000000000000000    -0.009069537419005
2 58
    -0.009247156716066    -0.007582099360721     0.000000000000000
    -0.012078607870549    -0.000549785879060     0.000000000000000
     0.000000000000000     0.000000000000000     0.001561328102594
2 59
     0.018297719435689     0.002710850420792     0.000000000000000
    -0.005652103010065     0.001896955706113     0.000000000000000
     0.000000000000000     0.000000000000000     0.001459402115280
2 60
    -0.075729354982442     0.009027527898670     0.000000000000000
     0.018442513830736    -0.075037064443746     0.000000000000000
     0.000000000000000     0.000000000000000     0.002641825264211
3 1
    -0.015578925553987     0.009030245526973     0.000000000000000
     0.023806643113641     0.012339143424775     0.000000000000000
     0.000000000000000     0.000000000000000     0.014167620516121
3 2
    -0.014754761779052     0.004191560369462     0.000000000000000
     0.015079298047157    -0.003628609509772     0.000000000000000
     0.000000000000000     0.000000000000000     0.004686586843578
3 3
    17.683035463589938    -8.621858051268550     0.000000000000000
    -8.621858000845204    16.884504027869603     0.000000000000000
     0.000000000000000     0.000000000000000     2.520623022553994
3 4
     0.007533330205877     0.006166032833894     0.000000000000000
    -0.006166061760994    -0.027317779550471     0.000000000000000
     0.000000000000000     0.000000000000000    -0.005441653603781
3 5
     0.080296400882486     0.022020738916879     0.000000000000000
     0.042461276659403     0.043067624004106     0.000000000000000
     0.000000000000000     0.000000000000000     0.171142530256055
3 6
    -0.018609577037063     0.014946261357546     0.000000000000000
    -0.006929749951611    -0.044092215494025     0.000000000000000
     0.000000000000000     0.000000000000000    -0.011000297789556
3 7
     0.019578948564047     0.011267478579593     0.000000000000000
    -0.003508380665304    -0.022818252004381     0.000000000000000
     0.000000000000000     0.000000000000000     0.014167620695739
3 8
    -0.002901546430461    -0.030224681915471     0.000000000000000
    -0.051502463384909     0.044283586977481     0.000000000000000
     0.000000000000000     0.000000000000000    -0.441946751515702
3 9
     0.005098328850161     0.003324950715439     0.000000000000000
    -0.003324971909949    -0.023760988695859     0.000000000000000
     0.000000000000000     0.000000000000000    -0.000653217968193
3 10
    -0.041192845351462    -0.001906964956171     0.000000000000000
     0.019968229212318    -0.021509011272322     0.000000000000000
     0.000000000000000     0.000000000000000    -0.011000293498355
3 11
    -0.917927469734859    -1.529125538153765     0.000000000000000
    -1.529125569155872    -1.513618626775899     0.000000000000000
     0.000000000000000     0.000000000000000     0.231613324229396
3 12
    -0.019012177859110     0.003089635502722     0.000000000000000
     0.023856133956340    -0.003455001803405     0.000000000000000
     0.000000000000000     0.000000000000000    -0.002111148612103
3 13
    -0.034595300531820    -0.017671249438575     0.000000000000000
    -0.047399965959200     0.057790333085432     0.000000000000000
     0.000000000000000     0.000000000000000    -0.034099919599799
3 14
    -0.030166672357848    -0.018642715172172     0.000000000000000
    -0.162698534826317    -0.015823636878164     0.000000000000000
     0.000000000000000     0.000000000000000     0.043192930646029
3 15
     0.020653341558296    -0.484235812686514     0.000000000000000
    -0.135521854403937     0.232464110854575     0.000000000000000
     0.000000000000000     0.000000000000000     0.133790883292884
3 16
    -0.028021297406785    -0.034210596544653     0.000000000000000
     0.012650746565585     0.054473006742517     0.000000000000000
     0.000000000000000     0.000000000000000     0.000102978870345
3 17
    -0.036690865630135     0.022017538431897     0.000000000000000
    -0.039685675348254     0.050286518316857     0.000000000000000
     0.000000000000000     0.000000000000000     0.002573585916676
3 18
    -6.702977097082053     3.364909461234171     0.000000000000000
     3.407458037750910    -5.478797516420046     0.000000000000000
     0.000000000000000     0.000000000000000    -1.576150922995014
3 19
    -0.133818554599246    -0.269274451070643     0.000000000000000
     0.178809195233874    -0.250397880807151     0.000000000000000
     0.000000000000000     0.000000000000000    -0.095173739497951
3 20
    -0.024815418352053     0.011270136825639     0.000000000000000
    -0.108735046737311     0.085841413368736     0.000000000000000
     0.000000000000000     0.000000000000000     0.044847626716553
3 21
    -0.007780329629835    -0.019800808339066     0.000000000000000
    -0.030732938585810     0.004800791856733     0.000000000000000
     0.000000000000000     0.000000000000000     0.010911456515636
3 22
     0.002266794236614    -0.330013422985234     0.000000000000000
    -0.270208842498334     0.010202644476672     0.000000000000000
     0.000000000000000     0.000000000000000     0.201027448978335
3 23
     0.087805806388857    -0.242144666653454     0.000000000000000
    -0.342217627263062    -0.128747701238250     0.000000000000000
     0.000000000000000     0.000000000000000     0.176351270418397
3 24
    -0.065631949639178    -0.028274839900354     0.000000000000000
    -0.009453601453499    -0.003192021389459     0.000000000000000
     0.000000000000000     0.000000000000000    -0.054520685853973
3 25
     0.010253946856735    -0.085210342320120     0.000000000000000
    -0.035627224322244     0.058472152752259     0.000000000000000
     0.000000000000000     0.000000000000000    -0.012331587091239
3 26
     0.019154389477326     0.011353702537663     0.000000000000000
    -0.057271282458606    -0.030969243825952     0.000000000000000