# epsilon and Z* of atoms 1 2 3 5 7 9 11 13 15 17 19 21 23
   4.04128458   -0.00000000   -0.82056981   -0.00000000    3.73233317   -0.00000000   -0.82056979   -0.00000000    2.99364065 
   0.53532287    0.00000000   -0.40069495    0.00000000    1.17817346   -0.00000000   -0.30729402    0.00000000    1.30806936 
  -1.10725790    0.00000000    0.28041869    0.00000000   -1.24325900   -0.00000000    0.36773891   -0.00000000   -1.48809363 
  -0.56194767   -0.01565873    0.19735705    0.00008115   -0.48818161   -0.09059945    0.05086881   -0.07040718   -0.45990805 
   0.10426172   -0.27056401   -0.10836713    0.09093058    0.50462228    0.05099579   -0.01511451    0.13868113    0.04081432 
  -0.16998670    0.23845080   -0.01651855   -0.05988410   -0.36977675    0.02902904    0.03520754   -0.13326072   -0.05565174 
   0.21451876    0.12875213   -0.15218504    0.04454503    0.23345578   -0.05577176   -0.18904835   -0.06862482   -0.07898117 
  -0.16484641   -0.51031129    0.07896352   -0.12947054   -0.12618525    0.08633558    0.13025128    0.26116749    0.01508072 
   0.33628766    0.19721483   -0.09584053   -0.14983092   -0.08069491    0.11208952   -0.11501741   -0.10755876    0.20651015 
  -0.12571871    0.06409593   -0.10766835    0.09699706    0.08262096   -0.05428327   -0.05520970   -0.01503801   -0.18253091 
   0.08591379    0.11194784    0.08071972    0.00514250   -0.03765538   -0.05593663    0.05232131   -0.03910069    0.12715823 
   0.33762375    0.08531403    0.02543883    0.09862242    0.14742581   -0.02898111   -0.01761843   -0.01675574    0.13985134 
   0.13072873   -0.06743909    0.06012616    0.00866919   -0.02411851    0.05529869    0.03923711    0.03781084    0.15851046 
   0.09909338   -0.03045268    0.09817191   -0.08242368    0.19098725   -0.02352051    0.05394880   -0.06654867    0.17900046 