  24  192
1 1
     1.679714131420178     0.000000000000000    -1.394486491843677
    -0.000000000000000     4.507021022628372    -0.000000000000000
    -1.394486633367108    -0.000000000000000     3.271662536967692
1 2
    -0.005852708041250     0.014705862515744    -0.000514220456472
     0.014705481398497    -0.013434453812633    -0.000047727606423
    -0.000513965306897    -0.000047738299177     0.000768866921224
1 3
    -0.005852708041250    -0.014705862515744    -0.000514220456472
    -0.014705481398497    -0.013434453812633     0.000047727606423
    -0.000513965306897     0.000047738299177     0.000768866921224
1 4
    -0.001131898551901     0.000000000000000    -0.000452126569158
    -0.000000000000000    -0.025800190750492    -0.000000000000000
    -0.000451100840071    -0.000000000000000     0.000045805877363
1 5
    -0.060341439675774    -0.000000000000000     0.113737081570470
     0.000000000000000     0.266685484180924     0.000000000000000
     0.113737643515482     0.000000000000000    -0.586652194176763
1 6
    -0.000398901851543     0.009295264202179     0.001016798340864
     0.009295464590246    -0.013141905697133    -0.002558587617886
     0.001017526263194    -0.002558369251578    -0.000530237511617
1 7
    -0.000398901851543    -0.009295264202178     0.001016798340864
    -0.009295464590246    -0.013141905697133     0.002558587617886
     0.001017526263194     0.002558369251578    -0.000530237511617
1 8
    -0.001383651977225    -0.000000000000000     0.000964269785197
     0.000000000000000    -0.025258935678436     0.000000000000000
     0.000964141958670     0.000000000000000    -0.000106159605224
1 9
    -0.266193995639842     0.540423714974993     0.661037197988577
     0.345041757386118    -0.723295020333256    -1.138298923016257
     0.262110671774977    -1.143768277202086    -1.209335242598203
1 10
     0.006138104591444    -0.009880986398183     0.003912070214361
    -0.024114196919456     0.004233864467121    -0.010119944935991
     0.001559355488561     0.001157628550716    -0.001334234444335
1 11
     0.013238352286954     0.011999752892761    -0.001501468206190
     0.035941124779015     0.007013200003492    -0.002820481842938
    -0.000167207710869    -0.001267889003227     0.001320409416979
1 12
     0.003002991001443     0.001013566287498    -0.000430964429977
    -0.000204603932156     0.033881558563315    -0.006625847914083
    -0.001073470828224     0.000178403246863    -0.000225663182573
1 13
    -0.266193995639842    -0.540423714974993     0.661037197988577
    -0.345041757386118    -0.723295020333256     1.138298923016257
     0.262110671774977     1.143768277202086    -1.209335242598203
1 14
     0.013238352286954    -0.011999752892761    -0.001501468206190
    -0.035941124779015     0.007013200003492     0.002820481842938
    -0.000167207710869     0.001267889003227     0.001320409416979
1 15
     0.006138104591444     0.009880986398183     0.003912070214361
     0.024114196919456     0.004233864467121     0.010119944935991
     0.001559355488561    -0.001157628550716    -0.001334234444335
1 16
     0.003002991001443    -0.001013566287498    -0.000430964429977
     0.000204603932156     0.033881558563315     0.006625847914083
    -0.001073470828224    -0.000178403246863    -0.000225663182573
1 17
     0.000189162605509    -0.002212558068542     0.000655594787577
    -0.003967140423666     0.011649861349976     0.004018917595234
     0.002737830731591     0.004279525653836    -0.001276536284427
1 18
     0.005715697205306     0.014619804542043     0.006211709777999
     0.024977886855047     0.000944561478566    -0.005657291557828
     0.012242754817607     0.011338136531948    -0.003332048358088
1 19
     0.007458220784408    -0.003627274348317    -0.001985080917120
    -0.008019857339558     0.006664811151824    -0.003136756518475
     0.002109172628233    -0.000553565134235    -0.000798336131288
1 20
    -0.377707833675137    -0.215368654568507    -0.067663744850398
    -0.599381039137845    -1.169503768262124     0.035153696092319
     0.272884683909899     0.561291985547408    -0.154339279549395
1 21
     0.001319063360551     0.000128096024297    -0.000411834820216
    -0.003606847664594     0.011324702656353     0.004797243171074
    -0.002963057183844    -0.004440442132992     0.001162157185047
1 22
     0.004042778227602     0.002360496724277     0.001684716651690
     0.017598795775289     0.003745221766101    -0.003604404476338
    -0.015063746063326    -0.008548391728709     0.010043729953146
1 23
     0.002992021643202    -0.001980651157961    -0.001961108449262
    -0.009278382675305     0.005966751986564     0.002206716755167
    -0.001213600786381    -0.000684017064943     0.000883069850433
1 24
     0.001469945255249    -0.012130972088662    -0.045108125104791
     0.032586423113835    -0.028636522383863    -0.041246856033304
     0.046834228776042     0.044107914429988     0.036345907290123
1 25
     0.001319063360551    -0.000128096024297    -0.000411834820216
     0.003606847664594     0.011324702656353    -0.004797243171074
    -0.002963057183844     0.004440442132992     0.001162157185047
1 26
     0.002992021643202     0.001980651157961    -0.001961108449262
     0.009278382675305     0.005966751986564    -0.002206716755167
    -0.001213600786381     0.000684017064943     0.000883069850433
1 27
     0.004042778227602    -0.002360496724277     0.001684716651690
    -0.017598795775289     0.003745221766101     0.003604404476338
    -0.015063746063326     0.008548391728709     0.010043729953146
1 28
     0.001469945255249     0.012130972088662    -0.045108125104791
    -0.032586423113835    -0.028636522383863     0.041246856033304
     0.046834228776042    -0.044107914429988     0.036345907290123
1 29
     0.000189162605509     0.002212558068542     0.000655594787577
     0.003967140423666     0.011649861349976    -0.004018917595234
     0.002737830731591    -0.004279525653836    -0.001276536284427
1 30
     0.007458220784408     0.003627274348317    -0.001985080917120
     0.008019857339558     0.006664811151824     0.003136756518475
     0.002109172628233     0.000553565134235    -0.000798336131288
1 31
     0.005715697205306    -0.014619804542043     0.006211709777999
    -0.024977886855047     0.000944561478567     0.005657291557828
     0.012242754817607    -0.011338136531948    -0.003332048358088
1 32
    -0.377707833675137     0.215368654568507    -0.067663744850398
     0.599381039137845    -1.169503768262124    -0.035153696092319
     0.272884683909899    -0.561291985547408    -0.154339279549395
1 33
    -0.000234943752256     0.002859060644494     0.000674426084244
    -0.001070779573717     0.000764816103000    -0.001212616433459
    -0.000200604667948    -0.002308930703135     0.000357925333076
1 34
    -0.002911503417038    -0.021003589984227    -0.002038504860618
     0.003892251237830    -0.026951236435443     0.004817067046623
     0.010441059812369    -0.014708661025390    -0.007500872598959
1 35
     0.001129138247148     0.005249774454521     0.001372788628397
    -0.000198457412726    -0.026618828375360    -0.004495706739137
    -0.002046843010782     0.000158877715527     0.000383527082946
1 36
    -0.555984006765027    -0.119341470188476     0.250211910341175
    -0.526726005524273     0.128785535937011     0.283211663058960
     0.126199683203534     0.175797922022315    -0.022422916714553
1 37
    -0.000004122863902     0.001580232870143     0.000320202766928
    -0.001395544300193     0.001058482405018    -0.000964728415241
     0.000161967155697     0.001139241519648    -0.000409100713367
1 38
     0.000124918577399    -0.002484170989650    -0.001520285524697
     0.004741843573583    -0.015526608098323     0.000712313972232
    -0.011832349041227     0.013744802068853     0.005352885207377
1 39
    -0.002095382368923     0.006562709128172     0.000395496209514
     0.003150261624067    -0.022424490175615    -0.001537460866633
    -0.000667848129824    -0.001003284848983     0.000430072187947
1 40
     0.016863225218394     0.002571302051166     0.013942149213857
    -0.019983093500203     0.019537416612600     0.013715873213749
    -0.018724415429027    -0.021773453955929     0.007262848512010
1 41
    -0.000004122863902    -0.001580232870143     0.000320202766928
     0.001395544300193     0.001058482405018     0.000964728415241
     0.000161967155697    -0.001139241519648    -0.000409100713367
1 42
    -0.002095382368923    -0.006562709128172     0.000395496209514
    -0.003150261624067    -0.022424490175615     0.001537460866633
    -0.000667848129824     0.001003284848983     0.000430072187947
1 43
     0.000124918577399     0.002484170989650    -0.001520285524697
    -0.004741843573583    -0.015526608098323    -0.000712313972232
    -0.011832349041227    -0.013744802068853     0.005352885207377
1 44
     0.016863225218394    -0.002571302051166     0.013942149213857
     0.019983093500203     0.019537416612600    -0.013715873213749
    -0.018724415429027     0.021773453955929     0.007262848512010
1 45
    -0.000234943752256    -0.002859060644494     0.000674426084244
     0.001070779573717     0.000764816103000     0.001212616433459
    -0.000200604667948     0.002308930703135     0.000357925333076
1 46
     0.001129138247148    -0.005249774454521     0.001372788628397
     0.000198457412726    -0.026618828375360     0.004495706739137
    -0.002046843010782    -0.000158877715527     0.000383527082946
1 47
    -0.002911503417038     0.021003589984227    -0.002038504860618
    -0.003892251237830    -0.026951236435443    -0.004817067046623
     0.010441059812369     0.014708661025390    -0.007500872598959
1 48
    -0.555984006765027     0.119341470188476     0.250211910341175
     0.526726005524273     0.128785535937011    -0.283211663058960
     0.126199683203534    -0.175797922022315    -0.022422916714553
1 49
    -0.000856221839156    -0.002162271461455     0.000610123862096
    -0.000534572571805     0.002342588073641    -0.002042004084117
     0.001860332850539     0.002817035963118    -0.001184052373883
1 50
    -0.013563907942130    -0.026666119786429    -0.016168150022536
    -0.030171818856372    -0.020950988244370     0.007070358823590
    -0.027262854215856     0.007675630277206     0.000059495781137
1 51
     0.003526044890010    -0.004286719634673    -0.001010629335303
    -0.002824799749043     0.017168131487423    -0.000019686049586
    -0.000170747902039     0.001751341928721    -0.000247955473578
1 52
     0.116707551220864     0.114496587588960    -0.031948668596878
     0.196540746110915     0.119411383702780    -0.044321052048634
     0.008529747529228    -0.054401990735905     0.029139636107036
1 53
    -0.000209281206296    -0.001245122184190     0.000370051229562
    -0.000354050730624     0.002038943115912    -0.002285859832922
    -0.001122697360315    -0.001877214085281     0.000912642164404
1 54
    -0.006062160519100     0.006178203469753    -0.007896804621107
    -0.000805487624210    -0.002149406890915     0.012430343779584
     0.008942176815564    -0.015443532163054    -0.011114866427836
1 55
     0.000470804507086    -0.003110583364117    -0.000019583903594
    -0.000927102447406     0.013355843256854     0.000641323881492
    -0.000492199062817     0.000935272216580     0.000043823193524
1 56
     0.003977287552790     0.001970388205914     0.018296907035853
     0.001901436349297    -0.002907654490390     0.016027094368805
    -0.015660576545519     0.003585859988770     0.004429229347178
1 57
    -0.000209281206296     0.001245122184190     0.000370051229562
     0.000354050730624     0.002038943115911     0.002285859832922
    -0.001122697360315     0.001877214085281     0.000912642164404
1 58
     0.000470804507086     0.003110583364117    -0.000019583903594
     0.000927102447406     0.013355843256854    -0.000641323881492
    -0.000492199062817    -0.000935272216580     0.000043823193524
1 59
    -0.006062160519100    -0.006178203469753    -0.007896804621107
     0.000805487624210    -0.002149406890915    -0.012430343779584
     0.008942176815564     0.015443532163054    -0.011114866427836
1 60
     0.003977287552790    -0.001970388205914     0.018296907035853
    -0.001901436349297    -0.002907654490390    -0.016027094368805
    -0.015660576545519    -0.003585859988770     0.004429229347178
1 61
    -0.000856221839156     0.002162271461455     0.000610123862096
     0.000534572571805     0.002342588073641     0.002042004084117
     0.001860332850539    -0.002817035963118    -0.001184052373883
1 62
     0.003526044890010     0.004286719634673    -0.001010629335303
     0.002824799749043     0.017168131487423     0.000019686049586
    -0.000170747902039    -0.001751341928721    -0.000247955473578
1 63
    -0.013563907942130     0.026666119786429    -0.016168150022536
     0.030171818856372    -0.020950988244370    -0.007070358823590
    -0.027262854215856    -0.007675630277206     0.000059495781137
1 64
     0.116707551220864    -0.114496587588960    -0.031948668596878
    -0.196540746110915     0.119411383702780     0.044321052048634
     0.008529747529228     0.054401990735905     0.029139636107036
1 65
     0.000968440905803     0.003961904676834    -0.000982523981010
    -0.004041792287918     0.001944956910394    -0.000778066280623
    -0.004208717503743    -0.008760235920973    -0.000295792361348
1 66
    -0.054252541784511    -0.029320862975963     0.017680327065856
     0.009439100021780     0.052290301535588    -0.015263526358310
    -0.018377956421320    -0.016512865253021    -0.010270911474725
1 67
    -0.002873258626172    -0.003137371705291     0.001353060342417
     0.005318549768426    -0.008874654527703    -0.001940342887333
     0.001679220706573    -0.000598700014106    -0.000688900789522
1 68
     0.015525878949497    -0.036380153123220    -0.010314209573291
     0.003637383774617    -0.069756007654601    -0.003402042750885
    -0.002617529567870     0.015151403941179    -0.002803528229002
1 69
     0.000139526816936     0.001078612288549    -0.000005909197891
    -0.004249920101263     0.001303027655026    -0.000894492789288
     0.003087743371268     0.007540399025377     0.000984627284264
1 70
    -0.000231736812458    -0.011307990754846    -0.004864114377974
     0.012321617756479     0.033323317437782     0.001980892656220
    -0.010480878919922    -0.000778419168977     0.012529174806498
1 71
    -0.001849320641129    -0.000310589897418     0.001794194485314
     0.003486728663468    -0.006483395060073    -0.001014988147391
     0.000772864471756    -0.000140535245520    -0.000356404903235
1 72
    -0.001639245543733    -0.007173174366730     0.002601742571326
    -0.003098801503095    -0.022528333924018     0.010047733936536
     0.000902487149197     0.006907532626001    -0.000993478187944
1 73
     0.000139526816936    -0.001078612288549    -0.000005909197891
     0.004249920101263     0.001303027655026     0.000894492789288
     0.003087743371268    -0.007540399025377     0.000984627284264
1 74
    -0.001849320641129     0.000310589897418     0.001794194485314
    -0.003486728663468    -0.006483395060073     0.001014988147391
     0.000772864471756     0.000140535245520    -0.000356404903235
1 75
    -0.000231736812458     0.011307990754846    -0.004864114377974
    -0.012321617756479     0.033323317437782    -0.001980892656220
    -0.010480878919922     0.000778419168977     0.012529174806498
1 76
    -0.001639245543733     0.007173174366730     0.002601742571326
     0.003098801503095    -0.022528333924018    -0.010047733936536
     0.000902487149197    -0.006907532626001    -0.000993478187944
1 77
     0.000968440905803    -0.003961904676834    -0.000982523981010
     0.004041792287918     0.001944956910394     0.000778066280623
    -0.004208717503743     0.008760235920973    -0.000295792361348
1 78
    -0.002873258626172     0.003137371705291     0.001353060342417
    -0.005318549768426    -0.008874654527703     0.001940342887333
     0.001679220706573     0.000598700014106    -0.000688900789522
1 79
    -0.054252541784511     0.029320862975963     0.017680327065856
    -0.009439100021780     0.052290301535588     0.015263526358310
    -0.018377956421320     0.016512865253021    -0.010270911474725
1 80
     0.015525878949497     0.036380153123220    -0.010314209573291
    -0.003637383774617    -0.069756007654601     0.003402042750885
    -0.002617529567870    -0.015151403941179    -0.002803528229002
1 81
    -0.004988828732548    -0.004447919179721     0.001862558279965
     0.018636149387934    -0.003243980364854    -0.008028549466599
     0.016096478179811     0.012910506561614    -0.006068085302988
1 82
    -0.005819886763636     0.031331868936193     0.012227665024650
    -0.007775722655505    -0.003592997043494     0.000582910089220
     0.008567500892352     0.000274326245827    -0.002365039480746
1 83
     0.003075255773819     0.004708954685255    -0.000911357023501
    -0.007433159911688     0.001022358662280     0.002546529910980
    -0.001297225742108     0.001101457137095     0.001249472075401
1 84
    -0.071112006920780     0.130267790192459     0.066255917578721
     0.021989439606253     0.111914618089992     0.021190621571647
     0.002255030874464    -0.024796123853125     0.024587023380882
1 85
     0.005769597205359     0.002261021691431    -0.002053661328602
     0.016642159332792    -0.003224494216593    -0.009313143734962
    -0.020013042528484    -0.015910747448055     0.008290160970390
1 86
     0.000878356039099     0.006099736402447     0.000593275579773
    -0.006295695274866    -0.002082121128668     0.002665526499165
    -0.001787191699496     0.004459106754293     0.003315275881774
1 87
     0.001789613779754     0.000464381119099    -0.000227168455269
    -0.006151101090946    -0.000765725737642     0.002047848525024
    -0.001489867012580    -0.000120753011752     0.000427444728816
1 88
     0.003121215717384    -0.000621220638908     0.001647578683624
     0.003395905495373    -0.010325496541910    -0.001823653133688
    -0.006345923893849     0.000783869344846    -0.008474590096749
1 89
     0.005769597205359    -0.002261021691431    -0.002053661328602
    -0.016642159332792    -0.003224494216593     0.009313143734962
    -0.020013042528484     0.015910747448055     0.008290160970390
1 90
     0.001789613779754    -0.000464381119099    -0.000227168455269
     0.006151101090946    -0.000765725737642    -0.002047848525024
    -0.001489867012580     0.000120753011752     0.000427444728816
1 91
     0.000878356039099    -0.006099736402447     0.000593275579773
     0.006295695274866    -0.002082121128668    -0.002665526499165
    -0.001787191699496    -0.004459106754293     0.003315275881774
1 92
     0.003121215717384     0.000621220638908     0.001647578683624
    -0.003395905495373    -0.010325496541910     0.001823653133688
    -0.006345923893849    -0.000783869344846    -0.008474590096749
1 93
    -0.004988828732548     0.004447919179721     0.001862558279965
    -0.018636149387934    -0.003243980364854     0.008028549466599
     0.016096478179811    -0.012910506561614    -0.006068085302988
1 94
     0.003075255773819    -0.004708954685255    -0.000911357023501
     0.007433159911688     0.001022358662280    -0.002546529910980
    -0.001297225742108    -0.001101457137095     0.001249472075401
1 95
    -0.005819886763636    -0.031331868936193     0.012227665024650
     0.007775722655505    -0.003592997043494    -0.000582910089220
     0.008567500892352    -0.000274326245827    -0.002365039480746
1 96
    -0.071112006920780    -0.130267790192459     0.066255917578721
    -0.021989439606253     0.111914618089992    -0.021190621571647
     0.002255030874464     0.024796123853125     0.024587023380882
1 97
     0.000683020407831     0.000239494313856    -0.000516627859932
     0.002733266980850     0.004687043387242    -0.000408224808452
    -0.003355088991288    -0.000144041796856     0.003166599194098
1 98
    -0.003322248274531    -0.012226860043113     0.000615690212852
    -0.007341807421275     0.008859622098611     0.001942989627007
     0.001498175981945    -0.003493958552840     0.002714186482347
1 99
    -0.007569383650788    -0.002615782827341     0.004140764026465
     0.009673450864540     0.000832797417440    -0.003200507631938
    -0.000112412774834     0.000132574226268     0.000749931883764
1 100
     0.399300971984478    -0.233546871654599    -0.143021351576249
     0.281288800393261    -0.726525408933610    -0.051325214549872
    -0.004316092138115     0.113509897754940     0.028318238344558
1 101
    -0.001893776067527     0.000784016589712     0.000865602567171
     0.002655284842380     0.004389859460554    -0.000483043449198
     0.004208984556713    -0.000669855424933    -0.004221510922053
1 102
     0.001230969105518     0.000407639114329     0.000112915185246
    -0.007063252337428     0.003382258046456    -0.000543173559259
    -0.002162933735657    -0.002498286878360    -0.000907929853250
1 103
    -0.001256920183006    -0.001870939313502     0.000903163820120
     0.008137196199775     0.001237814038766    -0.003746900145818
     0.000375375692302     0.000423278692344    -0.000469030606861
1 104
    -0.007815823757213     0.014285697867276     0.010092915764363
    -0.014537052685720    -0.004072182594989     0.014828435151066
     0.028145624568425     0.001389919178412    -0.008507343692938
1 105
    -0.001893776067527    -0.000784016589712     0.000865602567171
    -0.002655284842380     0.004389859460554     0.000483043449198
     0.004208984556713     0.000669855424933    -0.004221510922053
1 106
    -0.001256920183006     0.001870939313502     0.000903163820120
    -0.008137196199775     0.001237814038766     0.003746900145818
     0.000375375692302    -0.000423278692344    -0.000469030606861
1 107
     0.001230969105518    -0.000407639114329     0.000112915185246
     0.007063252337428     0.003382258046456     0.000543173559259
    -0.002162933735657     0.002498286878360    -0.000907929853250
1 108
    -0.007815823757213    -0.014285697867276     0.010092915764363
     0.014537052685720    -0.004072182594989    -0.014828435151066
     0.028145624568425    -0.001389919178412    -0.008507343692938
1 109
     0.000683020407831    -0.000239494313856    -0.000516627859932
    -0.002733266980850     0.004687043387242     0.000408224808452
    -0.003355088991288     0.000144041796856     0.003166599194098
1 110
    -0.007569383650788     0.002615782827341     0.004140764026465
    -0.009673450864540     0.000832797417440     0.003200507631938
    -0.000112412774834    -0.000132574226268     0.000749931883764
1 111
    -0.003322248274531     0.012226860043113     0.000615690212852
     0.007341807421275     0.008859622098610    -0.001942989627007
     0.001498175981945     0.003493958552840     0.002714186482347
1 112
     0.399300971984478     0.233546871654599    -0.143021351576249
    -0.281288800393261    -0.726525408933610     0.051325214549872
    -0.004316092138115    -0.113509897754940     0.028318238344558
1 113
     0.005872470923548     0.009289356452737    -0.001857011323813
    -0.016325104274233     0.003814056399749    -0.000447410873000
    -0.021803036531477    -0.025098834912101    -0.014216221799350
1 114
     0.006037483279769    -0.003187997861869     0.001326079291147
     0.009047267117608     0.019792241913221    -0.012695169490987
    -0.000752563173231     0.001449804369304    -0.003241253514049
1 115
    -0.000775726927291    -0.000324930236054     0.002716700841782
    -0.003139231378300    -0.012938269218004     0.003358524946692
     0.002732089135511     0.000002382138497    -0.001921665550648
1 116
     0.020255096627945     0.000144827402107    -0.009055886805889
     0.012643651490726     0.016995821378473     0.002414130336971
     0.004470403924976     0.005751970884772     0.002186024524764
1 117
    -0.006779250235709    -0.004770514446430    -0.002463920534540
    -0.015971029225097     0.005501397432618    -0.003643069381105
     0.033125223593767     0.020144674179345     0.018959949416561
1 118
     0.002828118040376     0.000343518055673     0.000614293483758
     0.006903594088396     0.012592966387121    -0.005024223124583
    -0.002922486624692    -0.001838309495674     0.003041525398347
1 119
    -0.001240355065163    -0.000539072542081     0.001746382114522
    -0.002121976670397    -0.008881008130343     0.001997286753858
    -0.000753340249144    -0.001700481619847     0.000604937120082
1 120
    -0.001399787501016    -0.001074850928894    -0.003632547871697
    -0.009329454039968    -0.009778098973444     0.008975068406933
    -0.000423974736867     0.000333238175067    -0.002118304815381
1 121
    -0.006779250235709     0.004770514446430    -0.002463920534540
     0.015971029225097     0.005501397432618     0.003643069381105
     0.033125223593767    -0.020144674179345     0.018959949416561
1 122
    -0.001240355065163     0.000539072542081     0.001746382114522
     0.002121976670397    -0.008881008130343    -0.001997286753858
    -0.000753340249144     0.001700481619847     0.000604937120082
1 123
     0.002828118040376    -0.000343518055673     0.000614293483758
    -0.006903594088396     0.012592966387121     0.005024223124583
    -0.002922486624692     0.001838309495674     0.003041525398347
1 124
    -0.001399787501016     0.001074850928894    -0.003632547871697
     0.009329454039968    -0.009778098973444    -0.008975068406933
    -0.000423974736867    -0.000333238175067    -0.002118304815381
1 125
     0.005872470923548    -0.009289356452737    -0.001857011323813
     0.016325104274233     0.003814056399749     0.000447410873000
    -0.021803036531477     0.025098834912101    -0.014216221799350
1 126
    -0.000775726927291     0.000324930236054     0.002716700841782
     0.003139231378300    -0.012938269218004    -0.003358524946692
     0.002732089135511    -0.000002382138497    -0.001921665550648
1 127
     0.006037483279769     0.003187997861869     0.001326079291147
    -0.009047267117608     0.019792241913221     0.012695169490987
    -0.000752563173231    -0.001449804369304    -0.003241253514049
1 128
     0.020255096627945    -0.000144827402107    -0.009055886805889
    -0.012643651490726     0.016995821378473    -0.002414130336971
     0.004470403924976    -0.005751970884772     0.002186024524764
1 129
     0.000840129848280     0.004054349257576    -0.002313453700286
    -0.003045399082424    -0.004467801505069    -0.002207068423853
    -0.000263545383671     0.001332836143800     0.000180131767028
1 130
    -0.000830780047226    -0.000979150500932    -0.000746514634594
    -0.001087571817986     0.000101190245759     0.000895511453649
     0.000353654498577     0.000593571495579     0.000051920066373
1 131
    -0.022100503075269    -0.068378141972911     0.005345213975807
     0.031506808992027    -0.042668849833360    -0.027714326347856
     0.028247690255441    -0.003366229539308    -0.020519347725948
1 132
     0.001483171994029     0.000431146085873    -0.003416386441408
     0.003732519153626     0.004035698664335     0.009112755194351
    -0.000109450111720    -0.000144816497160     0.000564445359544
1 133
    -0.000011753589601     0.000354630864799     0.000531241167941
    -0.003099198591903    -0.004284637912120    -0.001765620080219
     0.000105200433795    -0.000439987137753    -0.001587476656246
1 134
    -0.000515048480268    -0.000523134526217    -0.000183295662776
    -0.001132038094927    -0.000029519602180     0.000464141486032
    -0.000020138711879    -0.000341159246094     0.000121358056214
1 135
    -0.007870559908228     0.008497385642790    -0.021403868148830
     0.005062057188030     0.016207550592741    -0.014424703753239
    -0.035472376406258    -0.010734444747588    -0.022255242705956
1 136
    -0.000463363068260    -0.000212927343492     0.001587511872394
     0.003225303309323     0.003477588523445    -0.001369535064528
     0.000019497580912     0.000199944835216    -0.000436705331817
1 137
    -0.000011753589601    -0.000354630864799     0.000531241167941
     0.003099198591903    -0.004284637912120     0.001765620080219
     0.000105200433795     0.000439987137753    -0.001587476656246
1 138
    -0.007870559908228    -0.008497385642790    -0.021403868148830
    -0.005062057188030     0.016207550592741     0.014424703753239
    -0.035472376406258     0.010734444747588    -0.022255242705956
1 139
    -0.000515048480268     0.000523134526217    -0.000183295662776
     0.001132038094927    -0.000029519602180    -0.000464141486032
    -0.000020138711879     0.000341159246094     0.000121358056214
1 140
    -0.000463363068260     0.000212927343492     0.001587511872394
    -0.003225303309323     0.003477588523445     0.001369535064528
     0.000019497580912    -0.000199944835216    -0.000436705331817
1 141
     0.000840129848280    -0.004054349257576    -0.002313453700286
     0.003045399082424    -0.004467801505069     0.002207068423853
    -0.000263545383671    -0.001332836143800     0.000180131767028
1 142
    -0.022100503075269     0.068378141972911     0.005345213975807
    -0.031506808992027    -0.042668849833360     0.027714326347856
     0.028247690255441     0.003366229539308    -0.020519347725948
1 143
    -0.000830780047226     0.000979150500932    -0.000746514634594
     0.001087571817986     0.000101190245759    -0.000895511453649
     0.000353654498577    -0.000593571495579     0.000051920066373
1 144
     0.001483171994029    -0.000431146085873    -0.003416386441408
    -0.003732519153626     0.004035698664335    -0.009112755194351
    -0.000109450111720     0.000144816497160     0.000564445359544
1 145
    -0.002062456083442     0.000269254926408    -0.000773239345734
     0.005642700796299     0.000940358301821     0.000793780611806
    -0.000377330791283    -0.000590995498845    -0.001692041043602
1 146
     0.002060658352373    -0.014725203032474    -0.032514725282087