# epsilon and Z* of atoms 1 3 5 13 21 25 29
   1.84727964   -0.00000000   -0.00000000   -0.00000000    1.82699467   -0.00000000   -0.00000000   -0.00000000    1.65230631 
   3.27496970    0.00000000   -0.92892685    0.00000000    3.78094759    0.00000000   -0.67974286    0.00000000    3.10005275 
  -1.50921037    0.00000000   -0.00000000    0.00000000   -0.93775901    0.00000000    0.00000000    0.00000000   -0.94895717 
  -1.48696945   -0.39418677    0.47902945   -0.41553948   -1.45353962    0.60325103    0.39938072    0.63607659   -1.03367416 
   0.04384701   -0.06844964    0.04962416    0.08741292   -0.00141540   -0.07712297   -0.06354449   -0.10127007   -0.03242287 
  -0.04609699   -0.00000000   -0.00000000    0.00000000   -0.29662111    0.26836491    0.00000000    0.24777856   -0.17136428 
   2.34108645    0.00000000    0.00000000    0.00000000    1.90008444   -1.21534126    0.00000000   -1.24821704    1.22960291 
   0.04512211    0.07093445   -0.05153361    0.04760432    0.12506505    0.00592474   -0.03885802    0.00296573    0.13379233 