  36   36
1 1
    23.889984561306569     0.000000000000000     0.418905871515019
     0.000000000000000    19.551368422571240     0.000000000973487
     0.418902231104662     0.000000000973487    19.791047492788692
1 2
    -8.253549923549397     0.000000000000000     1.513314977828988
     0.000000000000000     2.663043240880622     0.000000000132595
    -1.513314977828987     0.000000000132596     3.612284128268676
1 3
    -5.047708936538197     0.000000000000000    -3.078327632908856
     0.000000000000000    -1.428280397604025    -0.000000000071115
    -2.183581050939835    -0.000000000071116    -3.287877902375628
1 4
    -5.047708936538197     0.000000000000000    -3.078327632908856
     0.000000000000000    -1.428280397604025    -0.000000000071115
    -2.183581050939835    -0.000000000071115    -3.287877902375628
1 5
    -0.975149043639307    -0.325225693715933     0.230160055129748
    -0.007979821369523    -3.178728193850139     1.728878661878428
    -0.072805772001890     1.615986092899369    -2.992332215812939
1 6
    -0.975149043639307     0.325225693715933     0.230160055162135
     0.007979821369523    -3.178728193850139    -1.728878662194973
    -0.072805772001095    -1.615986093215911    -2.992332216146030
1 7
     1.049449845266358    -0.025765854274502    -0.239498011087941
    -1.501278396222800    -0.522202045854459    -0.040526749337445
    -1.159050804837882    -0.064942081258632    -0.610689754524383
1 8
     1.049449845266358     0.025765854274502    -0.239498011085375
     1.501278396222800    -0.522202045854459     0.040526749285443
    -1.159050804688382     0.064942081206630    -0.610689754513880
1 9
     1.049449845266358    -0.025765854274502    -0.239498011087941
    -1.501278396222800    -0.522202045854459    -0.040526749337445
    -1.159050804837882    -0.064942081258632    -0.610689754524383
1 10
    -0.975149043639307     0.325225693715933     0.230160055162135
     0.007979821369523    -3.178728193850139    -1.728878662194974
    -0.072805772001095    -1.615986093215911    -2.992332216146028
1 11
     1.049449845266358     0.025765854274502    -0.239498011085375
     1.501278396222800    -0.522202045854459     0.040526749285443
    -1.159050804688382     0.064942081206631    -0.610689754513880
1 12
    -0.975149043639307    -0.325225693715933     0.230160055129748
    -0.007979821369523    -3.178728193850139     1.728878661878428
    -0.072805772001890     1.615986092899369    -2.992332215812940
1 13
    -0.079138739474455     0.019473251530165    -0.018918344961585
    -0.071296546751979    -0.010285024343179    -0.004169601458318
     0.062374399983017    -0.006134998748264    -0.004457311077193
1 14
    -0.079138739474455    -0.019473251530165    -0.018918344963524
     0.071296546751979    -0.010285024343179     0.004169601457293
     0.062374399990117     0.006134998747240    -0.004457311076167
1 15
     0.074173634288874    -0.071488657824560    -0.057898935427933
    -0.020458093252600     0.086132542250753     0.102052555043332
    -0.020484861319411     0.112523424166855     0.046869733215244
1 16
     0.074173634288874     0.071488657824560    -0.057898935420814
     0.020458093252600     0.086132542250753    -0.102052555034755
    -0.020484861317374    -0.112523424158277     0.046869733193876
1 17
     0.074173634288874    -0.071488657824560    -0.057898935427933
    -0.020458093252600     0.086132542250753     0.102052555043332
    -0.020484861319411     0.112523424166855     0.046869733215244
1 18
    -0.079138739474455    -0.019473251530165    -0.018918344963524
     0.071296546751979    -0.010285024343179     0.004169601457293
     0.062374399990117     0.006134998747240    -0.004457311076167
1 19
     0.074173634288874     0.071488657824560    -0.057898935420814
     0.020458093252600     0.086132542250753    -0.102052555034755
    -0.020484861317374    -0.112523424158277     0.046869733193876
1 20
    -0.079138739474455     0.019473251530165    -0.018918344961585
    -0.071296546751979    -0.010285024343179    -0.004169601458318
     0.062374399983017    -0.006134998748264    -0.004457311077193
1 21
     0.084484901424361     0.206124614375918    -0.131091524098491
     0.237985294880701     0.597338403972442    -0.248318558394222
    -0.235677756880357    -0.352219999648212     0.505190970167857
1 22
     0.084484901424361    -0.206124614375918    -0.131091524119018
    -0.237985294880701     0.597338403972442     0.248318558453706
    -0.235677756904056     0.352219999707696     0.505190970227659
1 23
     0.084484901424361    -0.206124614375918    -0.131091524119018
    -0.237985294880701     0.597338403972442     0.248318558453706
    -0.235677756904056     0.352219999707696     0.505190970227660
1 24
     0.084484901424361     0.206124614375918    -0.131091524098491
     0.237985294880701     0.597338403972442    -0.248318558394222
    -0.235677756880357    -0.352219999648212     0.505190970167857
1 25
    -1.558512304187644    -1.527008760808147     1.276485472845585
    -3.147382803868773    -1.735874224546046     1.456995248989989
     2.834250263060916     1.562949288413893    -1.116074285985767
1 26
    -1.558512304187644     1.527008760808147     1.276485472997648
     3.147382803868773    -1.735874224546046    -1.456995249162850
     2.834250263374339    -1.562949288586755    -1.116074286286499
1 27
    -1.558512304187644     1.527008760808147     1.276485472997647
     3.147382803868773    -1.735874224546046    -1.456995249162850
     2.834250263374338    -1.562949288586755    -1.116074286286501
1 28
    -1.558512304187644    -1.527008760808147     1.276485472845585
    -3.147382803868773    -1.735874224546046     1.456995248989989
     2.834250263060916     1.562949288413893    -1.116074285985767
1 29
    -0.015049885296215     0.014899763411596    -0.005492572776637
    -0.016376347078955    -0.021180988711859     0.040650929054837
     0.013615475851826     0.049193434090996    -0.005449184070301
1 30
    -0.015049885296215    -0.014899763411596    -0.005492572778121
     0.016376347078955    -0.021180988711859    -0.040650929056946
     0.013615475853457    -0.049193434093105    -0.005449184079248
1 31
     0.034477995740150    -0.002630077287464     0.002371930392930
    -0.064814181202302    -0.055303093551143    -0.066651186661202
    -0.056821151604360    -0.077826938393273    -0.029798421479005
1 32
     0.034477995740150     0.002630077287464     0.002371930393192
     0.064814181202302    -0.055303093551143     0.066651186655695
    -0.056821151597906     0.077826938387766    -0.029798421464618
1 33
     0.034477995740150    -0.002630077287464     0.002371930392930
    -0.064814181202302    -0.055303093551143    -0.066651186661202
    -0.056821151604360    -0.077826938393273    -0.029798421479005
1 34
    -0.015049885296215    -0.014899763411596    -0.005492572778121
     0.016376347078955    -0.021180988711859    -0.040650929056946
     0.013615475853457    -0.049193434093105    -0.005449184079248
1 35
     0.034477995740150     0.002630077287464     0.002371930393192
     0.064814181202302    -0.055303093551143     0.066651186655695
    -0.056821151597906     0.077826938387766    -0.029798421464618
1 36
    -0.015049885296215     0.014899763411596    -0.005492572776637
    -0.016376347078955    -0.021180988711859     0.040650929054837
     0.013615475851826     0.049193434090996    -0.005449184070301
2 1
    -8.253549923549397     0.000000000000000    -1.513314977828987
     0.000000000000000     2.663043240880622     0.000000000132595
     1.513314977828989     0.000000000132596     3.612284128268680
2 2
    23.889984561306569     0.000000000000000    -0.418905871515023
     0.000000000000000    19.551368422571240     0.000000000973483
    -0.418902231104668     0.000000000973484    19.791047492788703
2 3
    -5.047708936538197     0.000000000000000     3.078327632908856
     0.000000000000000    -1.428280397604025    -0.000000000071115
     2.183581050939835    -0.000000000071115    -3.287877902375628
2 4
    -5.047708936538197     0.000000000000000     3.078327632908854
     0.000000000000000    -1.428280397604025    -0.000000000071115
     2.183581050939835    -0.000000000071115    -3.287877902375626
2 5
     1.049449845266358    -0.025765854274502     0.239498011085375
    -1.501278396222800    -0.522202045854459     0.040526749285442
     1.159050804688382     0.064942081206630    -0.610689754513880
2 6
     1.049449845266358     0.025765854274502     0.239498011087941
     1.501278396222800    -0.522202045854459    -0.040526749337444
     1.159050804837882    -0.064942081258632    -0.610689754524383
2 7
    -0.975149043639307    -0.325225693715933    -0.230160055162135
    -0.007979821369523    -3.178728193850139    -1.728878662194971
     0.072805772001095    -1.615986093215913    -2.992332216146031
2 8
    -0.975149043639307     0.325225693715933    -0.230160055129748
     0.007979821369523    -3.178728193850139     1.728878661878429
     0.072805772001890     1.615986092899369    -2.992332215812939
2 9
    -0.975149043639307    -0.325225693715933    -0.230160055162135
    -0.007979821369523    -3.178728193850139    -1.728878662194972
     0.072805772001096    -1.615986093215913    -2.992332216146030
2 10
     1.049449845266358     0.025765854274502     0.239498011087941
     1.501278396222800    -0.522202045854459    -0.040526749337444
     1.159050804837882    -0.064942081258632    -0.610689754524383
2 11
    -0.975149043639307     0.325225693715933    -0.230160055129748
     0.007979821369523    -3.178728193850139     1.728878661878429
     0.072805772001890     1.615986092899369    -2.992332215812941
2 12
     1.049449845266358    -0.025765854274502     0.239498011085375
    -1.501278396222800    -0.522202045854459     0.040526749285442
     1.159050804688382     0.064942081206630    -0.610689754513880
2 13
     0.074173634288874    -0.071488657824560     0.057898935420814
    -0.020458093252600     0.086132542250753    -0.102052555034755
     0.020484861317374    -0.112523424158277     0.046869733193876
2 14
     0.074173634288874     0.071488657824560     0.057898935427933
     0.020458093252600     0.086132542250753     0.102052555043332
     0.020484861319411     0.112523424166855     0.046869733215244
2 15
    -0.079138739474455     0.019473251530165     0.018918344963524
    -0.071296546751979    -0.010285024343179     0.004169601457293
    -0.062374399990117     0.006134998747240    -0.004457311076167
2 16
    -0.079138739474455    -0.019473251530165     0.018918344961585
     0.071296546751979    -0.010285024343179    -0.004169601458318
    -0.062374399983017    -0.006134998748264    -0.004457311077193
2 17
    -0.079138739474455     0.019473251530165     0.018918344963524
    -0.071296546751979    -0.010285024343179     0.004169601457293
    -0.062374399990117     0.006134998747240    -0.004457311076167
2 18
     0.074173634288874     0.071488657824560     0.057898935427933
     0.020458093252600     0.086132542250753     0.102052555043332
     0.020484861319411     0.112523424166855     0.046869733215244
2 19
    -0.079138739474455    -0.019473251530165     0.018918344961585
     0.071296546751979    -0.010285024343179    -0.004169601458318
    -0.062374399983017    -0.006134998748264    -0.004457311077193
2 20
     0.074173634288874    -0.071488657824560     0.057898935420814
    -0.020458093252600     0.086132542250753    -0.102052555034755
     0.020484861317374    -0.112523424158277     0.046869733193876
2 21
     0.084484901424361    -0.206124614375918     0.131091524098491
    -0.237985294880701     0.597338403972442    -0.248318558394222
     0.235677756880357    -0.352219999648212     0.505190970167857
2 22
     0.084484901424361     0.206124614375918     0.131091524119018
     0.237985294880701     0.597338403972442     0.248318558453706
     0.235677756904056     0.352219999707696     0.505190970227660
2 23
     0.084484901424361     0.206124614375918     0.131091524119018
     0.237985294880701     0.597338403972442     0.248318558453706
     0.235677756904056     0.352219999707696     0.505190970227660
2 24
     0.084484901424361    -0.206124614375918     0.131091524098491
    -0.237985294880701     0.597338403972442    -0.248318558394222
     0.235677756880357    -0.352219999648212     0.505190970167857
2 25
    -1.558512304187644     1.527008760808147    -1.276485472845585
     3.147382803868773    -1.735874224546046     1.456995248989989
    -2.834250263060916     1.562949288413892    -1.116074285985767
2 26
    -1.558512304187644    -1.527008760808147    -1.276485472997648
    -3.147382803868773    -1.735874224546046    -1.456995249162851
    -2.834250263374338    -1.562949288586754    -1.116074286286500
2 27
    -1.558512304187644    -1.527008760808147    -1.276485472997648
    -3.147382803868773    -1.735874224546046    -1.456995249162851
    -2.834250263374338    -1.562949288586755    -1.116074286286499
2 28
    -1.558512304187644     1.527008760808147    -1.276485472845585
     3.147382803868773    -1.735874224546046     1.456995248989989
    -2.834250263060916     1.562949288413892    -1.116074285985767
2 29
     0.034477995740150    -0.002630077287464    -0.002371930393192
    -0.064814181202302    -0.055303093551143     0.066651186655695
     0.056821151597906     0.077826938387766    -0.029798421464618
2 30
     0.034477995740150     0.002630077287464    -0.002371930392930
     0.064814181202302    -0.055303093551143    -0.066651186661203
     0.056821151604360    -0.077826938393273    -0.029798421479005
2 31
    -0.015049885296215     0.014899763411596     0.005492572778121
    -0.016376347078955    -0.021180988711859    -0.040650929056946
    -0.013615475853457    -0.049193434093105    -0.005449184079248
2 32
    -0.015049885296215    -0.014899763411596     0.005492572776637
     0.016376347078955    -0.021180988711859     0.040650929054837
    -0.013615475851826     0.049193434090996    -0.005449184070301
2 33
    -0.015049885296215     0.014899763411596     0.005492572778121
    -0.016376347078955    -0.021180988711859    -0.040650929056946
    -0.013615475853457    -0.049193434093105    -0.005449184079248
2 34
     0.034477995740150     0.002630077287464    -0.002371930392930
     0.064814181202302    -0.055303093551143    -0.066651186661203
     0.056821151604360    -0.077826938393273    -0.029798421479005
2 35
    -0.015049885296215    -0.014899763411596     0.005492572776637
     0.016376347078955    -0.021180988711859     0.040650929054837
    -0.013615475851826     0.049193434090996    -0.005449184070301
2 36
     0.034477995740150    -0.002630077287464    -0.002371930393192
    -0.064814181202302    -0.055303093551143     0.066651186655695
     0.056821151597906     0.077826938387766    -0.029798421464618
3 1
    -5.047709022679708     0.000000000000000    -2.183587665034345
     0.000000000000000    -1.428279974232599    -0.000000000071115
    -3.078330191004377    -0.000000000071115    -3.287889521055404
3 2
    -5.047709022679708     0.000000000000000     2.183587665034345
     0.000000000000000    -1.428279974232599    -0.000000000071115
     3.078330191004377    -0.000000000071115    -3.287889521055404
3 3
    18.625952627134595     0.000000000000000    -0.000000000000002
     0.000000000000000     4.562686937960359     0.000000000227181
    -0.000000000000000     0.000000000227181     9.107303277427450
3 4
    -0.325748882129942     0.000000000000000    -0.000000000000000
     0.000000000000000     0.184490182166043     0.000000000009186
    -0.000000000000000     0.000000000009186     0.204331972068046
3 5
     0.314270241144246     0.809922878458840    -1.108909071105927
     0.347423531572932    -0.351154607863445     1.005372534011816
    -0.578894247884856     0.830060315447394    -0.946073329928725
3 6
     0.314270241144246    -0.809922878458840    -1.108909071186581
    -0.347423531572932    -0.351154607863445    -1.005372534046785
    -0.578894247919453    -0.830060315482362    -0.946073330111501
3 7
    -2.355776978263780    -1.273323413972255    -0.492605009036590
    -0.865434215072153    -0.408092763134435    -0.282289029599976
    -0.449279622085205    -0.422809699287393     0.054029642405507
3 8
    -2.355776978263780     1.273323413972255    -0.492605008909789
     0.865434215072153    -0.408092763134435     0.282289029559337
    -0.449279621999024     0.422809699246754     0.054029642475722
3 9
     0.314270241144246     0.809922878458840     1.108909071186581
     0.347423531572932    -0.351154607863445    -1.005372534046785
     0.578894247919453    -0.830060315482363    -0.946073330111501
3 10
    -2.355776978263780     1.273323413972255     0.492605009036590
     0.865434215072153    -0.408092763134435    -0.282289029599976
     0.449279622085205    -0.422809699287393     0.054029642405507
3 11
     0.314270241144246    -0.809922878458840     1.108909071105927
    -0.347423531572932    -0.351154607863445     1.005372534011816
     0.578894247884856     0.830060315447394    -0.946073329928725
3 12
    -2.355776978263780    -1.273323413972255     0.492605008909789
    -0.865434215072153    -0.408092763134435     0.282289029559337
     0.449279621999024     0.422809699246754     0.054029642475722
3 13
    -0.022094332391449     0.021393097035785    -0.012618771823343
     0.015561896731578    -0.012627405094386     0.013459525304852
    -0.016886414815855     0.020245359706603    -0.010215402868937
3 14
    -0.022094332391449    -0.021393097035785    -0.012618771825473
    -0.015561896731578    -0.012627405094386    -0.013459525306110
    -0.016886414817404    -0.020245359707860    -0.010215402872293
3 15
     0.031771346049982    -0.020510629388979    -0.023100899857514
    -0.005954863942502    -0.000933443115283    -0.004494148006414
    -0.011608060013792    -0.002944069915292     0.005238660760479
3 16
     0.031771346049982     0.020510629388979    -0.023100899855472
     0.005954863942502    -0.000933443115283     0.004494148006321
    -0.011608060013199     0.002944069915199     0.005238660761219
3 17
    -0.022094332391449     0.021393097035785     0.012618771825473
     0.015561896731578    -0.012627405094386    -0.013459525306110
     0.016886414817404    -0.020245359707860    -0.010215402872293
3 18
     0.031771346049982     0.020510629388979     0.023100899857514
     0.005954863942502    -0.000933443115283    -0.004494148006414
     0.011608060013792    -0.002944069915292     0.005238660760479
3 19
    -0.022094332391449    -0.021393097035785     0.012618771823343
    -0.015561896731578    -0.012627405094386     0.013459525304852
     0.016886414815855     0.020245359706603    -0.010215402868937
3 20
     0.031771346049982    -0.020510629388979     0.023100899855472
    -0.005954863942502    -0.000933443115283     0.004494148006321
     0.011608060013199     0.002944069915199     0.005238660761219
3 21
     0.121935600136052     0.000000000000000     0.000000000000000
     0.000000000000000    -0.161286728912451     0.020862161344074
     0.000000000000000     0.154289200206255    -0.083183111800753
3 22
     0.121935600136052     0.000000000000000     0.000000000000000
     0.000000000000000    -0.161286728912451    -0.020862161360135
    -0.000000000000000    -0.154289200222316    -0.083183111818195
3 23
    -0.165385408666578     0.000000000000000     0.000000000000000
     0.000000000000000    -0.099473176854694    -0.070425809657312
    -0.000000000000000    -0.082491150796140    -0.100416856323021
3 24
    -0.165385408666578     0.000000000000000     0.000000000000000
     0.000000000000000    -0.099473176854694     0.070425809647406
    -0.000000000000000     0.082491150786234    -0.100416856307794
3 25
    -1.519098598761606     0.000000000000000     0.000000000000000
     0.000000000000000     0.402887530059440    -0.360383526124206
    -0.000000000000000    -0.485803829591453     0.306517537321493
3 26
    -1.519098598761606     0.000000000000000     0.000000000000000
     0.000000000000000     0.402887530059440     0.360383526164326
    -0.000000000000000     0.485803829631573     0.306517537405757
3 27
     1.518850768493102     0.000000000000000     0.000000000000000
     0.000000000000000     0.282897399846887     0.258623556727755
    -0.000000000000000     0.230954169098243     0.291301978538451
3 28
     1.518850768493102     0.000000000000000     0.000000000000000
     0.000000000000000     0.282897399846887    -0.258623556699583
    -0.000000000000000    -0.230954169070071     0.291301978489698
3 29
    -0.011200161532882    -0.014759996000370     0.009305501081220
     0.004503076886323     0.021168765374123    -0.020054468098390
    -0.005558116597325    -0.031845032816721     0.000735899378590
3 30
    -0.011200161532882     0.014759996000370     0.009305501082690
    -0.004503076886323     0.021168765374123     0.020054468100498
    -0.005558116597774     0.031845032818829     0.000735899383758
3 31
     0.013568202672506     0.013930858768933     0.007571755619588
     0.012123510990881     0.013118180702286     0.011733600375848
     0.014755907167464     0.022179936042546     0.010475920740625
3 32
     0.013568202672506    -0.013930858768933     0.007571755618201
    -0.012123510990881     0.013118180702286    -0.011733600374542
     0.014755907166256    -0.022179936041240     0.010475920737248
3 33
    -0.011200161532882    -0.014759996000370    -0.009305501082690
     0.004503076886323     0.021168765374123     0.020054468100498
     0.005558116597774     0.031845032818829     0.000735899383758
3 34
     0.013568202672506    -0.013930858768933    -0.007571755619588
    -0.012123510990881     0.013118180702286     0.011733600375848
    -0.014755907167464     0.022179936042546     0.010475920740625
3 35
    -0.011200161532882     0.014759996000370    -0.009305501081220
    -0.004503076886323     0.021168765374123    -0.020054468098390
     0.005558116597325    -0.031845032816721     0.000735899378590
3 36
     0.013568202672506     0.013930858768933    -0.007571755618201
     0.012123510990881     0.013118180702286    -0.011733600374542
    -0.014755907166256    -0.022179936041240     0.010475920737248
4 1
    -5.047709022679708     0.000000000000000    -2.183587665034345
     0.000000000000000    -1.428279974232599    -0.000000000071115
    -3.078330191004377    -0.000000000071116    -3.287889521055403
4 2
    -5.047709022679708     0.000000000000000     2.183587665034345
     0.000000000000000    -1.428279974232599    -0.000000000071115
     3.078330191004377    -0.000000000071115    -3.287889521055404
4 3
    -0.325748882129942     0.000000000000000    -0.000000000000000
     0.000000000000000     0.184490182166043     0.000000000009186
    -0.000000000000000     0.000000000009186     0.204331972068046
4 4
    18.625952627134595     0.000000000000000    -0.000000000000003
     0.000000000000000     4.562686937960359     0.000000000227180
    -0.000000000000000     0.000000000227181     9.107303277427446
4 5
    -2.355776978263780    -1.273323413972255     0.492605008909789
    -0.865434215072153    -0.408092763134435     0.282289029559337
     0.449279621999024     0.422809699246754     0.054029642475722
4 6
    -2.355776978263780     1.273323413972255     0.492605009036590
     0.865434215072153    -0.408092763134435    -0.282289029599976
     0.449279622085205    -0.422809699287393     0.054029642405507
4 7
     0.314270241144246     0.809922878458840     1.108909071186581
     0.347423531572932    -0.351154607863445    -1.005372534046785
     0.578894247919453    -0.830060315482362    -0.946073330111502
4 8
     0.314270241144246    -0.809922878458840     1.108909071105927
    -0.347423531572932    -0.351154607863445     1.005372534011816
     0.578894247884856     0.830060315447394    -0.946073329928725
4 9
    -2.355776978263780    -1.273323413972255    -0.492605009036590
    -0.865434215072153    -0.408092763134435    -0.282289029599976
    -0.449279622085205    -0.422809699287393     0.054029642405507
4 10
     0.314270241144246    -0.809922878458840    -1.108909071186581
    -0.347423531572932    -0.351154607863445    -1.005372534046785
    -0.578894247919453    -0.830060315482362    -0.946073330111501
4 11
    -2.355776978263780     1.273323413972255    -0.492605008909789
     0.865434215072153    -0.408092763134435     0.282289029559337
    -0.449279621999024     0.422809699246754     0.054029642475722
4 12
     0.314270241144246     0.809922878458840    -1.108909071105927
     0.347423531572932    -0.351154607863445     1.005372534011816
    -0.578894247884856     0.830060315447394    -0.946073329928724
4 13
     0.031771346049982    -0.020510629388979     0.023100899855472
    -0.005954863942502    -0.000933443115283     0.004494148006321
     0.011608060013199     0.002944069915199     0.005238660761219
4 14
     0.031771346049982     0.020510629388979     0.023100899857514
     0.005954863942502    -0.000933443115283    -0.004494148006414
     0.011608060013792    -0.002944069915292     0.005238660760479
4 15
    -0.022094332391449     0.021393097035785     0.012618771825473
     0.015561896731578    -0.012627405094386    -0.013459525306110
     0.016886414817404    -0.020245359707860    -0.010215402872293
4 16
    -0.022094332391449    -0.021393097035785     0.012618771823343
    -0.015561896731578    -0.012627405094386     0.013459525304853
     0.016886414815855     0.020245359706603    -0.010215402868937
4 17
     0.031771346049982    -0.020510629388979    -0.023100899857514
    -0.005954863942502    -0.000933443115283    -0.004494148006414
    -0.011608060013792    -0.002944069915292     0.005238660760479
4 18
    -0.022094332391449    -0.021393097035785    -0.012618771825473
    -0.015561896731578    -0.012627405094386    -0.013459525306110
    -0.016886414817404    -0.020245359707860    -0.010215402872293
4 19
     0.031771346049982     0.020510629388979    -0.023100899855472
     0.005954863942501    -0.000933443115283     0.004494148006321
    -0.011608060013199     0.002944069915199     0.005238660761219
4 20
    -0.022094332391449     0.021393097035785    -0.012618771823343
     0.015561896731578    -0.012627405094386     0.013459525304852
    -0.016886414815855     0.020245359706603    -0.010215402868937
4 21
    -0.165385408666578     0.000000000000000     0.000000000000000
     0.000000000000000    -0.099473176854694     0.070425809647406
    -0.000000000000000     0.082491150786234    -0.100416856307794
4 22
    -0.165385408666578     0.000000000000000    -0.000000000000000
     0.000000000000000    -0.099473176854694    -0.070425809657312
     0.000000000000000    -0.082491150796140    -0.100416856323021
4 23
     0.121935600136052     0.000000000000000     0.000000000000000
     0.000000000000000    -0.161286728912451    -0.020862161360135
     0.000000000000000    -0.154289200222316    -0.083183111818195
4 24
     0.121935600136052     0.000000000000000     0.000000000000000
     0.000000000000000    -0.161286728912451     0.020862161344074
     0.000000000000000     0.154289200206255    -0.083183111800753
4 25
     1.518850768493102     0.000000000000000     0.000000000000000
     0.000000000000000     0.282897399846887    -0.258623556699583
    -0.000000000000000    -0.230954169070071     0.291301978489698
4 26
     1.518850768493102     0.000000000000000     0.000000000000000
     0.000000000000000     0.282897399846887     0.258623556727755
    -0.000000000000000     0.230954169098243     0.291301978538451
4 27
    -1.519098598761606     0.000000000000000     0.000000000000000
     0.000000000000000     0.402887530059440     0.360383526164326
    -0.000000000000000     0.485803829631573     0.306517537405758
4 28
    -1.519098598761606     0.000000000000000     0.000000000000000
     0.000000000000000     0.402887530059440    -0.360383526124206
    -0.000000000000000    -0.485803829591453     0.306517537321493
4 29
     0.013568202672506     0.013930858768933    -0.007571755618201
     0.012123510990881     0.013118180702286    -0.011733600374542
    -0.014755907166256    -0.022179936041240     0.010475920737248
4 30
     0.013568202672506    -0.013930858768933    -0.007571755619588
    -0.012123510990881     0.013118180702286     0.011733600375848
    -0.014755907167464     0.022179936042546     0.010475920740625
4 31
    -0.011200161532882    -0.014759996000370    -0.009305501082690
     0.004503076886323     0.021168765374123     0.020054468100498
     0.005558116597774     0.031845032818829     0.000735899383758
4 32
    -0.011200161532882     0.014759996000370    -0.009305501081220
    -0.004503076886323     0.021168765374123    -0.020054468098390
     0.005558116597325    -0.031845032816721     0.000735899378590
4 33
     0.013568202672506     0.013930858768933     0.007571755619588
     0.012123510990881     0.013118180702286     0.011733600375848
     0.014755907167464     0.022179936042546     0.010475920740625
4 34
    -0.011200161532882     0.014759996000370     0.009305501082690
    -0.004503076886323     0.021168765374123     0.020054468100498
    -0.005558116597774     0.031845032818829     0.000735899383758
4 35
     0.013568202672506    -0.013930858768933     0.007571755618201
    -0.012123510990881     0.013118180702286    -0.011733600374542
     0.014755907166256    -0.022179936041240     0.010475920737248
4 36
    -0.011200161532882    -0.014759996000370     0.009305501081220
     0.004503076886323     0.021168765374123    -0.020054468098390
    -0.005558116597325    -0.031845032816721     0.000735899378590
5 1
    -0.975150269256050    -0.007980870047486    -0.072803855326510
    -0.325225829787415    -3.178728368657511     1.615986377446687
     0.230158421230715     1.728877404082151    -2.992329829467917
5 2
     1.049449845266358    -1.501278396222800     1.159050804688382
    -0.025765854274502    -0.522202045854459     0.064942081206630