# epsilon and Z* of atoms 1 3 5
   5.32305874   -0.00000000   -0.05407753   -0.00000000    5.49122325   -0.00000000   -0.05407753   -0.00000000    5.47383326 
   1.04566370   -0.07731166   -0.05050555    0.07731166    1.20272044   -0.24041551   -0.05050555    0.24041551    1.18647910 
   6.78492252    0.48942736   -0.15499550   -0.48942736    7.26691090    1.52196867   -0.15499550   -1.52196867    7.21706820 
  -1.97539714   -1.00988115   -0.86748790   -1.06500063   -3.20239325   -1.66950403   -0.88603040   -1.55561396   -3.05621799 