  10 1250
1 1
     2.223785801641878    -0.000000000000352    -0.300572295376851
    -0.000000000000352     3.158473266906809     0.000000000001592
    -0.300572295376851     0.000000000001592     3.061816675131809
1 2
    -0.028366833139758     0.031511651723047    -0.002465873299538
     0.034776015841297     0.010890180594262     0.003669211707818
    -0.002968196747767     0.009413969279783     0.010398343353766
1 3
    -0.003850792539736     0.004130509389573    -0.000579560722788
     0.003344750704829     0.000203658168119     0.000491011169086
    -0.000392612773938     0.000835591051355     0.001302522313674
1 4
    -0.003850792539736     0.003344750704829    -0.000392612773938
     0.004130509389573     0.000203658168119     0.000835591051355
    -0.000579560722788     0.000491011169086     0.001302522313674
1 5
    -0.028366833139758     0.034776015841297    -0.002968196747767
     0.031511651723047     0.010890180594262     0.009413969279783
    -0.002465873299538     0.003669211707818     0.010398343353766
1 6
    -0.036860871153457    -0.024605263021177     0.007562307549914
    -0.022853050629977     0.005590345089092    -0.009843759091891
     0.008981702754362    -0.003612731047218     0.024192216872680
1 7
    -0.007241932363417     0.000496539309134    -0.000290357109481
     0.000368572786538     0.002259711337420    -0.000485796048348
    -0.000574658474082     0.000407044042181     0.002177635740079
1 8
    -0.002469532809008     0.001416842559198    -0.000208042741255
     0.001640945742482    -0.001596260655037     0.000192709061054
    -0.000279415162462     0.000530231128794     0.000506256416240
1 9
    -0.000686724665532     0.005427103104965    -0.000674364764931
     0.006784830338512    -0.010040820314531     0.000863315757613
    -0.000857180677145     0.001637699280362     0.002433872190639
1 10
     0.036646809972308     0.003155364694827    -0.017414457322864
    -0.016939363821735    -0.061186828415198     0.021915353429386
    -0.006995085746619     0.015725713931795     0.014261299263722
1 11
    -0.004803225185334    -0.003040053460673     0.001295020385711
    -0.002761128163986     0.000434009746705    -0.000255531149401
     0.000462375585665    -0.000253327216365     0.002024603380710
1 12
    -0.002840164365943    -0.001345743795268     0.000325882800320
    -0.001208496143523    -0.001176702169006     0.000198225697528
     0.000367286606247     0.000616183145239     0.000554767102278
1 13
    -0.000056538344774    -0.000479843520115     0.000029207903087
    -0.000163146605204    -0.004976068885726     0.000936491641368
    -0.000010095512016     0.001412482890870     0.000604316710440
1 14
     0.003248434560235    -0.000817457728951    -0.001194754471109
    -0.001410446624732    -0.009050596860959     0.002603960299339
    -0.000637175240425     0.002275321406423     0.001948518158301
1 15
    -0.002006722159107    -0.005840946739407     0.001783140199837
    -0.006933308445929    -0.006352503487692     0.003970155406628
     0.001455811657522     0.002129767892086     0.002019431752981
1 16
    -0.004803225185334    -0.002761128163986     0.000462375585665
    -0.003040053460673     0.000434009746705    -0.000253327216365
     0.001295020385711    -0.000255531149401     0.002024603380710
1 17
    -0.002006722159107    -0.006933308445929     0.001455811657522
    -0.005840946739407    -0.006352503487692     0.002129767892086
     0.001783140199837     0.003970155406628     0.002019431752981
1 18
     0.003248434560235    -0.001410446624732    -0.000637175240425
    -0.000817457728951    -0.009050596860959     0.002275321406423
    -0.001194754471109     0.002603960299339     0.001948518158301
1 19
    -0.000056538344774    -0.000163146605204    -0.000010095512016
    -0.000479843520115    -0.004976068885727     0.001412482890870
     0.000029207903087     0.000936491641368     0.000604316710440
1 20
    -0.002840164365943    -0.001208496143523     0.000367286606247
    -0.001345743795268    -0.001176702169006     0.000616183145239
     0.000325882800320     0.000198225697528     0.000554767102278
1 21
    -0.036860871153457    -0.022853050629977     0.008981702754362
    -0.024605263021177     0.005590345089092    -0.003612731047218
     0.007562307549914    -0.009843759091891     0.024192216872680
1 22
     0.036646809972308    -0.016939363821735    -0.006995085746619
     0.003155364694827    -0.061186828415198     0.015725713931795
    -0.017414457322864     0.021915353429386     0.014261299263722
1 23
    -0.000686724665532     0.006784830338513    -0.000857180677145
     0.005427103104965    -0.010040820314531     0.001637699280362
    -0.000674364764931     0.000863315757613     0.002433872190639
1 24
    -0.002469532809008     0.001640945742482    -0.000279415162462
     0.001416842559198    -0.001596260655037     0.000530231128794
    -0.000208042741255     0.000192709061054     0.000506256416240
1 25
    -0.007241932363417     0.000368572786538    -0.000574658474082
     0.000496539309134     0.002259711337420     0.000407044042181
    -0.000290357109481    -0.000485796048348     0.002177635740079
1 26
    -0.003620795262036    -0.009876644746745    -0.036516667511840
    -0.008952709166606     0.012378243983088    -0.003062036080991
    -0.037433739268078     0.003435345233160    -0.015835757912797
1 27
    -0.004910935219158     0.001561817976239    -0.003986530975751
     0.001763731424328     0.001872276513551     0.000554769793219
    -0.003502167938335     0.001341528670856     0.000234073419698
1 28
    -0.002301622242709     0.001763266140074    -0.000355002834574
     0.001930784271712    -0.000942548807887    -0.000570055184925
    -0.000378048560649    -0.000161831972413    -0.000217928382089
1 29
    -0.002529533100181     0.005839601437807     0.002810137544863
     0.006521384657355    -0.005272402690623    -0.004757666532432
     0.002233806255412    -0.002785247164624     0.001462141896930
1 30
     0.017543339105510     0.007667194484730     0.026705294258564
    -0.005439648100400    -0.015035603220319    -0.057101133328949
     0.016988972719363    -0.040234692432765    -0.012786455064245
1 31
    -0.005286913743888    -0.002430678509030    -0.003167500068712
    -0.001759982987387     0.001577990136219    -0.001226778326193
    -0.003367561741526    -0.000590768130996     0.000904338321745
1 32
    -0.002434212179631    -0.000082001295850    -0.000623945232313
     0.000082001295819    -0.000493934260848    -0.000254998828936
    -0.000623945232314     0.000254998829061    -0.000694579565127
1 33
    -0.000597680871652     0.001284909926034     0.000487687239745
     0.001544418249105    -0.003870472641169    -0.001071210054255
     0.000420138654561    -0.000323287583591    -0.000509185800669
1 34
     0.002788321788086     0.002498269505314     0.000876092591789
     0.001823846677032    -0.011410715080019    -0.005508599956038
     0.000937223841227    -0.003553663002267     0.002179962543090
1 35
     0.003502445842855    -0.008801176255832    -0.005835177398544
    -0.006926909419620    -0.003278492256016    -0.008200798429722
    -0.006276633185005    -0.007746712937280     0.009176773328290
1 36
    -0.002803108110814    -0.001639671678096     0.000375600093300
    -0.001513826613232    -0.000229321256546     0.000267586320110
     0.000506562927036     0.000636705760545    -0.000527107680416
1 37
    -0.000952783266504    -0.001586768265611     0.001143931425694
    -0.001297392033045    -0.002504059962978     0.001147959322749
     0.001193366077116     0.001886277014865    -0.001520496084017
1 38
     0.001157139119286    -0.000429438004326     0.000452558238818
    -0.000260757076837    -0.005215769868451     0.000648639378013
     0.000388371758659     0.001255219253357    -0.000520620132414
1 39
     0.001159525687852    -0.001535976631003    -0.000805540365007
    -0.001772674983563    -0.005058136768557    -0.000298243110197
    -0.000610368393518    -0.000250267249137     0.001426589360113
1 40
    -0.002409223294452    -0.002437157060916    -0.000304955356317
    -0.002220362279082    -0.000924033174357    -0.000648802529233
    -0.000618824660235    -0.000690590438061     0.001254194253766
1 41
    -0.004395624089580    -0.004964460626283     0.005330284770226
    -0.004963208524445    -0.001157229351191     0.003899092070492
     0.006335759552615     0.005109684335865    -0.002740819348602
1 42
     0.002420799070649    -0.003804138621926     0.002860734103186
    -0.002757523210919    -0.005879911313503     0.006824549391246
     0.001755848095256     0.008226043153306    -0.002983318505981
1 43
     0.001428338290133     0.000543170340441    -0.000887616956571
     0.000514792043696    -0.004382282475779     0.002531894894842
    -0.000942344257355     0.002809491454049     0.000093011790814
1 44
    -0.001545733739931     0.000046591072007    -0.000142213752634
    -0.000058978165759    -0.001670406897508     0.000473583274098
    -0.000096308269070     0.000347681681880     0.000304581025887
1 45
    -0.003681709703855    -0.000945688863958     0.001321633407275
    -0.001031309905125     0.000954330491290     0.000049127812157
     0.001767895486796    -0.000125643002418     0.000434270378240
1 46
     0.015099577508779     0.007815011142756     0.040899038457959
     0.003741441599011     0.019651844273313     0.035518202538339
     0.020763345342512     0.024176555866020    -0.045030140960887
1 47
     0.004991755463280     0.004632650689248    -0.007813126967424
     0.004521461659383     0.003822485506131     0.010676979276681
    -0.006167555571765     0.011769538108316     0.000586485945737
1 48
    -0.001867847836697     0.002439785175082    -0.001338182522078
     0.002117494432138    -0.000630858178053     0.001261528509619
    -0.001139305919526     0.001567473631992     0.000205597180385
1 49
    -0.003168251237807     0.001836624020644     0.000823041429567
     0.002191580748327     0.000588781092277    -0.000277926461814
     0.000855921166494    -0.000419999650936     0.000500407930459
1 50
    -0.005872175913410     0.002867435825002     0.008996111588179
     0.003706537502233     0.012800492452882    -0.002586184271672
     0.010200227197388    -0.003912821748190     0.002472410375734
1 51
    -0.001089230813244    -0.001130630315230    -0.004478875036411
    -0.000543448154454     0.001322148766366    -0.000360410014790
    -0.003833178185215    -0.000457333840123    -0.002577530011062
1 52
    -0.001242091769673     0.000043775147985    -0.001670757129398
     0.000051934841712    -0.000014661441644    -0.001017098203130
    -0.001730347541930    -0.000610134067596    -0.002302783836475
1 53
    -0.000143116172990     0.001025801215039     0.000683283505713
     0.001087652553315    -0.001894944426797    -0.003085630225394
     0.000568031212982    -0.002527686962216    -0.002390229920296
1 54
     0.001505140418269     0.001440575053574     0.002610352267329
     0.000911414875382    -0.002616154509048    -0.006666720429607
     0.002487383902417    -0.005977226239642    -0.002742630051703
1 55
     0.001749108397706    -0.001292227887741    -0.002955388592416
    -0.000992036405140     0.000018462968671    -0.005101131200826
    -0.002132729722237    -0.006408660242897    -0.010061244155809
1 56
    -0.001326429490199    -0.000619529112644    -0.001499981403061
    -0.000520281360303     0.000406070416568    -0.000256349479038
    -0.001518339482917     0.000173827793387    -0.002541740359057
1 57
     0.000013303795771    -0.000061581914168     0.000118274367315
     0.000116414037574    -0.000604257283057    -0.001206936762911
     0.000136388301070    -0.000432801936286    -0.004386385826191
1 58
     0.000767895862618     0.000586036954378     0.001350871233682
     0.000737661299157    -0.002636594664558    -0.002720289726405
     0.001404713440838    -0.002108224877304    -0.002710552079611
1 59
     0.000937327805671    -0.000560975046656    -0.000005057232679
    -0.000474541911329    -0.002593560508306    -0.003872225034476
     0.000119299536998    -0.003631548982877    -0.001204699692162
1 60
    -0.000949189791284    -0.001496913898958    -0.002568967220208
    -0.001083366939264    -0.000169796356115    -0.001410902463687
    -0.002321581743242    -0.001341584487318    -0.001174122686969
1 61
    -0.000394593930355    -0.000798561022304     0.001237745356926
    -0.000671902621092     0.000212127882614     0.001363619868530
     0.001392301064760     0.001900722788400    -0.004245824472297
1 62
     0.000641106828723    -0.000445482026070     0.001831170061583
    -0.000188021146511    -0.000883981205747     0.001173312763798
     0.001841514334568     0.001751343209552    -0.004336376504536
1 63
     0.000341123348793    -0.000046081454882     0.000708377378511
     0.000046081454949    -0.001861712596973    -0.000143299162963
     0.000708377378520     0.000143299162649    -0.001633916009251
1 64
    -0.000765417262527    -0.000551619634607    -0.000421318824857
    -0.000468383316647    -0.001107759926811    -0.000530668946204
    -0.000401020929010    -0.000498494211568    -0.000383459165547
1 65
    -0.001382866297545    -0.000637095811981    -0.000104278561765
    -0.000582154417527     0.000073098639816     0.000377624853530
    -0.000027668907219     0.000519807103873    -0.001601791953816
1 66
     0.001389388729168     0.000133070920470     0.003792278817752
    -0.000257156496603     0.001997213146623     0.004079253460241
     0.003111731222156     0.003685411507120    -0.007240246018166
1 67
     0.001059020333928     0.000353690362507     0.000447787652731
     0.000298829072164     0.000308611224007     0.003107192649395
     0.000142337307059     0.003096694223373    -0.003839653278528
1 68
    -0.000673752174636     0.000331929034334    -0.000498473524586
     0.000299342990760    -0.000700668787225     0.000664256085017
    -0.000448528855087     0.000733676417092    -0.000882215393030
1 69
    -0.001377128168057     0.000194806954265     0.000564870605607
     0.000193923972043    -0.000122604136365    -0.000155055910539
     0.000635113170958    -0.000213713434423    -0.000756904050458
1 70
    -0.000782914609497     0.000077113542342     0.003083383942891
    -0.000099558968301     0.001529634145093     0.001187022487619
     0.003153013411779     0.000975365179913    -0.003607651930375
1 71
     0.001877763080358     0.000277661546478    -0.002144403114790
     0.000135607543563     0.003143379691159     0.001794486644962
    -0.002393405861924    -0.000351496246012    -0.011360936665307
1 72
    -0.000735341543798     0.000233367452191    -0.002704521321250
     0.000395947118752     0.000719331804714     0.001030836376724
    -0.002357772280408     0.001006482703667    -0.002063052475982
1 73
    -0.001198142872397     0.000626194542832    -0.000417532402253
     0.000605442780474    -0.000607273801277    -0.000942610102466
    -0.000448236573237    -0.000776086811152    -0.001106142937902
1 74
    -0.000575882243879     0.001461544136990     0.002561020882612
     0.001194588043099    -0.000116365717463    -0.002884681712770
     0.002450742508424    -0.002770694801594    -0.001779773759227
1 75
     0.002289773388229     0.001693479926243     0.004398369432666
     0.000546065724071     0.002737317357830    -0.002309625106602
     0.003354614674205    -0.003678704478658    -0.011469521494839
1 76
    -0.001089230813244    -0.000543448154454    -0.003833178185215
    -0.001130630315230     0.001322148766366    -0.000457333840123
    -0.004478875036411    -0.000360410014790    -0.002577530011062
1 77
     0.001749108397706    -0.000992036405140    -0.002132729722237
    -0.001292227887741     0.000018462968671    -0.006408660242897
    -0.002955388592416    -0.005101131200826    -0.010061244155809
1 78
     0.001505140418269     0.000911414875382     0.002487383902417
     0.001440575053574    -0.002616154509048    -0.005977226239642
     0.002610352267329    -0.006666720429607    -0.002742630051703
1 79
    -0.000143116172990     0.001087652553315     0.000568031212982
     0.001025801215039    -0.001894944426798    -0.002527686962216
     0.000683283505713    -0.003085630225394    -0.002390229920296
1 80
    -0.001242091769673     0.000051934841712    -0.001730347541930
     0.000043775147985    -0.000014661441644    -0.000610134067596
    -0.001670757129398    -0.001017098203130    -0.002302783836475
1 81
     0.001877763080358     0.000135607543563    -0.002393405861924
     0.000277661546478     0.003143379691159    -0.000351496246012
    -0.002144403114790     0.001794486644962    -0.011360936665307
1 82
     0.002289773388229     0.000546065724071     0.003354614674205
     0.001693479926243     0.002737317357830    -0.003678704478658
     0.004398369432666    -0.002309625106602    -0.011469521494839
1 83
    -0.000575882243879     0.001194588043099     0.002450742508424
     0.001461544136990    -0.000116365717463    -0.002770694801594
     0.002561020882612    -0.002884681712770    -0.001779773759227
1 84
    -0.001198142872397     0.000605442780474    -0.000448236573237
     0.000626194542832    -0.000607273801277    -0.000776086811152
    -0.000417532402253    -0.000942610102466    -0.001106142937902
1 85
    -0.000735341543798     0.000395947118752    -0.002357772280408
     0.000233367452191     0.000719331804714     0.001006482703667
    -0.002704521321250     0.001030836376724    -0.002063052475982
1 86
     0.001389388729168    -0.000257156496603     0.003111731222156
     0.000133070920470     0.001997213146623     0.003685411507120
     0.003792278817752     0.004079253460241    -0.007240246018166
1 87
    -0.000782914609497    -0.000099558968301     0.003153013411780
     0.000077113542342     0.001529634145093     0.000975365179913
     0.003083383942891     0.001187022487619    -0.003607651930375
1 88
    -0.001377128168057     0.000193923972043     0.000635113170958
     0.000194806954265    -0.000122604136365    -0.000213713434423
     0.000564870605607    -0.000155055910539    -0.000756904050458
1 89
    -0.000673752174636     0.000299342990760    -0.000448528855087
     0.000331929034334    -0.000700668787225     0.000733676417092
    -0.000498473524586     0.000664256085017    -0.000882215393030
1 90
     0.001059020333928     0.000298829072164     0.000142337307059
     0.000353690362507     0.000308611224007     0.003096694223373
     0.000447787652731     0.003107192649395    -0.003839653278528
1 91
    -0.000394593930355    -0.000671902621092     0.001392301064760
    -0.000798561022304     0.000212127882614     0.001900722788400
     0.001237745356926     0.001363619868530    -0.004245824472298
1 92
    -0.001382866297545    -0.000582154417527    -0.000027668907219
    -0.000637095811981     0.000073098639816     0.000519807103873
    -0.000104278561765     0.000377624853530    -0.001601791953816
1 93
    -0.000765417262527    -0.000468383316647    -0.000401020929010
    -0.000551619634607    -0.001107759926811    -0.000498494211568
    -0.000421318824857    -0.000530668946204    -0.000383459165547
1 94
     0.000341123348793     0.000046081454950     0.000708377378520
    -0.000046081454882    -0.001861712596973     0.000143299162649
     0.000708377378511    -0.000143299162963    -0.001633916009251
1 95
     0.000641106828723    -0.000188021146511     0.001841514334568
    -0.000445482026070    -0.000883981205747     0.001751343209552
     0.001831170061583     0.001173312763798    -0.004336376504536
1 96
    -0.001326429490199    -0.000520281360303    -0.001518339482917
    -0.000619529112644     0.000406070416568     0.000173827793387
    -0.001499981403061    -0.000256349479038    -0.002541740359057
1 97
    -0.000949189791284    -0.001083366939264    -0.002321581743242
    -0.001496913898958    -0.000169796356115    -0.001341584487318
    -0.002568967220208    -0.001410902463687    -0.001174122686969
1 98
     0.000937327805671    -0.000474541911329     0.000119299536998
    -0.000560975046656    -0.002593560508306    -0.003631548982877
    -0.000005057232679    -0.003872225034475    -0.001204699692162
1 99
     0.000767895862618     0.000737661299157     0.001404713440838
     0.000586036954378    -0.002636594664558    -0.002108224877304
     0.001350871233682    -0.002720289726405    -0.002710552079611
1 100
     0.000013303795771     0.000116414037574     0.000136388301070
    -0.000061581914168    -0.000604257283057    -0.000432801936286
     0.000118274367315    -0.001206936762911    -0.004386385826191
1 101
    -0.003620795262036    -0.008952709166606    -0.037433739268078
    -0.009876644746745     0.012378243983088     0.003435345233160
    -0.036516667511840    -0.003062036080991    -0.015835757912797
1 102
     0.017543339105510    -0.005439648100400     0.016988972719363
     0.007667194484730    -0.015035603220319    -0.040234692432765
     0.026705294258564    -0.057101133328949    -0.012786455064245
1 103
    -0.002529533100181     0.006521384657355     0.002233806255412
     0.005839601437807    -0.005272402690623    -0.002785247164624
     0.002810137544863    -0.004757666532432     0.001462141896930
1 104
    -0.002301622242709     0.001930784271712    -0.000378048560649
     0.001763266140074    -0.000942548807888    -0.000161831972413
    -0.000355002834574    -0.000570055184925    -0.000217928382089
1 105
    -0.004910935219158     0.001763731424329    -0.003502167938335
     0.001561817976239     0.001872276513551     0.001341528670856
    -0.003986530975751     0.000554769793219     0.000234073419698
1 106
     0.015099577508779     0.003741441599011     0.020763345342512
     0.007815011142756     0.019651844273313     0.024176555866021
     0.040899038457958     0.035518202538339    -0.045030140960887
1 107
    -0.005872175913410     0.003706537502233     0.010200227197388
     0.002867435825002     0.012800492452882    -0.003912821748190
     0.008996111588179    -0.002586184271672     0.002472410375734
1 108
    -0.003168251237807     0.002191580748327     0.000855921166494
     0.001836624020644     0.000588781092277    -0.000419999650936
     0.000823041429567    -0.000277926461814     0.000500407930459
1 109
    -0.001867847836697     0.002117494432138    -0.001139305919526
     0.002439785175082    -0.000630858178053     0.001567473631992
    -0.001338182522078     0.001261528509619     0.000205597180385
1 110
     0.004991755463280     0.004521461659383    -0.006167555571765
     0.004632650689248     0.003822485506131     0.011769538108316
    -0.007813126967424     0.010676979276682     0.000586485945737
1 111
    -0.004395624089580    -0.004963208524445     0.006335759552615
    -0.004964460626283    -0.001157229351191     0.005109684335865
     0.005330284770226     0.003899092070492    -0.002740819348602
1 112
    -0.003681709703856    -0.001031309905125     0.001767895486796
    -0.000945688863958     0.000954330491290    -0.000125643002418
     0.001321633407275     0.000049127812157     0.000434270378240
1 113
    -0.001545733739931    -0.000058978165759    -0.000096308269070
     0.000046591072007    -0.001670406897508     0.000347681681879
    -0.000142213752634     0.000473583274098     0.000304581025888
1 114
     0.001428338290133     0.000514792043696    -0.000942344257355
     0.000543170340441    -0.004382282475779     0.002809491454049
    -0.000887616956571     0.002531894894842     0.000093011790814
1 115
     0.002420799070649    -0.002757523210919     0.001755848095256
    -0.003804138621926    -0.005879911313503     0.008226043153306
     0.002860734103186     0.006824549391246    -0.002983318505981
1 116
    -0.002803108110814    -0.001513826613232     0.000506562927036
    -0.001639671678096    -0.000229321256546     0.000636705760545
     0.000375600093300     0.000267586320110    -0.000527107680416
1 117
    -0.002409223294452    -0.002220362279082    -0.000618824660235
    -0.002437157060916    -0.000924033174357    -0.000690590438061
    -0.000304955356317    -0.000648802529233     0.001254194253766
1 118
     0.001159525687852    -0.001772674983563    -0.000610368393518
    -0.001535976631003    -0.005058136768557    -0.000250267249137
    -0.000805540365007    -0.000298243110197     0.001426589360113
1 119
     0.001157139119285    -0.000260757076837     0.000388371758659
    -0.000429438004326    -0.005215769868451     0.001255219253357
     0.000452558238818     0.000648639378013    -0.000520620132414
1 120
    -0.000952783266504    -0.001297392033045     0.001193366077116
    -0.001586768265611    -0.002504059962978     0.001886277014865
     0.001143931425694     0.001147959322749    -0.001520496084017
1 121
    -0.005286913743888    -0.001759982987387    -0.003367561741526
    -0.002430678509030     0.001577990136219    -0.000590768130996
    -0.003167500068712    -0.001226778326193     0.000904338321745
1 122
     0.003502445842855    -0.006926909419620    -0.006276633185005
    -0.008801176255832    -0.003278492256016    -0.007746712937280
    -0.005835177398544    -0.008200798429722     0.009176773328290
1 123
     0.002788321788086     0.001823846677032     0.000937223841227
     0.002498269505314    -0.011410715080019    -0.003553663002267
     0.000876092591789    -0.005508599956038     0.002179962543090
1 124
    -0.000597680871652     0.001544418249105     0.000420138654561
     0.001284909926033    -0.003870472641169    -0.000323287583591
     0.000487687239745    -0.001071210054255    -0.000509185800669
1 125
    -0.002434212179631     0.000082001295819    -0.000623945232314
    -0.000082001295850    -0.000493934260848     0.000254998829061
    -0.000623945232313    -0.000254998828936    -0.000694579565127
1 126
    -0.016810962861478     0.000665064446081    -0.007448155409537
    -0.000665064446122     0.006350511457820     0.002068146036457
    -0.007448155409538    -0.002068146036451     0.003955369497452
1 127
    -0.004020854973458     0.001224036877756    -0.000370324788334
     0.001350008344086     0.000204809665803     0.000307849690979
    -0.001004691612277    -0.000013988539656     0.000693663474189
1 128
    -0.002459176578568     0.002716189328530     0.001217602188196
     0.004137997130489    -0.002805150237840    -0.001500833093390
    -0.000007112031953    -0.000357844117394     0.000785611404849
1 129
    -0.006135003748020     0.016456016167103     0.008564501511454
     0.026709994031953    -0.027773371611241    -0.019093327075623
     0.000453251589416    -0.004756824695310     0.005803528645172
1 130
     0.013947201752859    -0.051542940973986    -0.051714963853655
    -0.068961145379828    -0.018571092837864    -0.074628833565218
    -0.052330079957913    -0.137108746077255     0.015892357677588
1 131
    -0.003960017856772    -0.001543587071096    -0.001006894214881
    -0.001206556491455     0.000320537526669     0.000089795051844
    -0.000500528006383    -0.000299914552387     0.000517098496649
1 132
    -0.001544774167902    -0.000332929863182     0.000119980005153
     0.000288407136240    -0.002401004267606    -0.000459384193574
     0.000122438333373     0.000687530023534     0.000034286524890
1 133
     0.000871727932949     0.001547602577278     0.000566637285383
     0.002191592760113    -0.007233362279818    -0.002628616883985
    -0.000067745152914     0.000067977522820     0.001095597784487
1 134
     0.005522441523623    -0.001091107292650    -0.002866324314448
    -0.003306616912601    -0.014390139479017    -0.005185639560952
    -0.001302147103719    -0.002144178788151     0.004344096347786
1 135
    -0.004375010019116    -0.007821863800061    -0.003195220340865
    -0.005975503794313     0.000396405848889    -0.002019679897531
    -0.000644097949720    -0.005304843898715     0.003120105958268
1 136
    -0.002754928019880    -0.003786738209917     0.000361289263403
    -0.002788391302529    -0.002279524044241     0.000653401263191
     0.001842818999705     0.001932564755073     0.000555736652561
1 137
     0.000865527347697    -0.002632209744133     0.000013112430789
    -0.001503274067987    -0.006646130871649     0.000413705697180
     0.000498261168454     0.003108828276545     0.001074126527080
1 138
     0.001806769433469    -0.000075440252069    -0.000668743141173
     0.000146092809049    -0.006565320384633    -0.001105388439748
    -0.000666973055741     0.000920564856713     0.001481990390669
1 139
    -0.000986934535420    -0.002008348647040    -0.000717948746178
    -0.001455422840907    -0.003644763632338    -0.001013253714443
     0.000014764072477    -0.000115765724207     0.001028907509099
1 140
    -0.003221728762026    -0.002425239783523    -0.000406821225119
    -0.001869756892911    -0.000181697841612    -0.000174504335934
     0.000647829181768    -0.000436119415632     0.000677484039804
1 141
    -0.009057643190489    -0.025269393267354     0.005325297411413
    -0.016000316587094    -0.020954622131187     0.009038720285108
     0.014033858464943     0.023691942446931     0.001907418607597
1 142
     0.007469077266392     0.003321675740379    -0.003774795526383
     0.002484633264125    -0.012380281366289     0.002192761085268
    -0.004937836291345     0.004304635315625     0.006794082031289
1 143
    -0.001159563015723     0.001651737254821     0.000116433783630
     0.002082141423631    -0.003438411715546    -0.000491723915127
    -0.000724329308428     0.000590392209497     0.001271416961573
1 144
    -0.003443901840862    -0.000172785804658     0.000227082306331
     0.000387894451714    -0.000128517857584    -0.000073275981891
     0.000352498790931    -0.000259529866469     0.000739683793631
1 145
    -0.008042361032024    -0.004382245461711     0.001928536707035
    -0.004378727094481     0.003941894466117     0.000644015977054
     0.005597288344563    -0.002048509776056     0.003241969160956
1 146
     0.024940601182890     0.066218241908514    -0.072278924185319