# epsilon and Z* of atoms 1 3 4 5 9 10 11 15 16 17 21 22 23 27 29 30 31 35 36 37 41 42 43
   2.69990670   -0.00003382   -0.00016802   -0.00003382    2.69994576    0.00029101   -0.00016802    0.00029101    2.09325723 
   2.69746400   -0.34822197    0.00042504    0.34764618    2.69765813    0.00032472    0.00016791    0.00019133    2.34078955 
  -1.16931447   -0.40170055   -0.38021895    0.00272375   -2.20597727   -0.57567105   -0.22121108   -0.80417446   -0.92848635 
  -1.16977306    0.40241583   -0.38003804   -0.00211654   -2.20617736    0.57438180   -0.22178044    0.80331534   -0.92738804 
  -2.12073062   -0.55078835    0.68769706   -0.14611317   -1.25476182   -0.04205110    0.80697752    0.20947086   -0.92774839 
  -1.77316408   -0.34684273   -0.30732436   -0.75153793   -1.60253080   -0.61645521   -0.58482746   -0.59414014   -0.92758696 
  -1.77378638    0.34666783   -0.30756504    0.75108692   -1.60200745    0.61645388   -0.58486042    0.59365145   -0.92753586 
  -2.11977051    0.55146163    0.68852761    0.14695221   -1.25558955    0.04137129    0.80710446   -0.21052497   -0.92844141 
  -1.60182929    0.30894045   -0.04089860    0.30882601   -1.24466071   -0.07228353   -0.00389164   -0.00818489   -0.59426223 
  -1.60190403   -0.30877856   -0.04133090   -0.30880284   -1.24519372    0.07175828   -0.00437215    0.00763379   -0.59458616 
  -1.06657672   -0.00003570    0.08312039    0.00004966   -1.78000986   -0.00076935    0.00904527   -0.00069801   -0.59427011 
   1.57477123    0.71796551    0.47252328    0.71809842    2.40411009    0.82031863    0.59537063    1.03351879    0.74403119 
   1.57522626   -0.71826520    0.47305531   -0.71818880    2.40459678   -0.81900255    0.59613123   -1.03221279    0.74311587 
   2.81866325   -0.00013454   -0.94670737   -0.00017121    1.16027577    0.00077981   -1.19280037    0.00096123    0.74407122 
   2.31670499    0.00009607   -0.00074589    0.00013754    2.31650608    0.00109521   -0.00076256    0.00116999    0.30252608 
  -0.17118906    0.13254811   -0.00950826    0.13256634   -0.01779527   -0.01704889   -0.01345555   -0.02380863    0.12022190 
  -0.17096744   -0.13255250   -0.00982000   -0.13253874   -0.01794616    0.01685091   -0.01368578    0.02359987    0.12032662 
   0.05863367   -0.00011847    0.01952687   -0.00012657   -0.24760647   -0.00024098    0.02734723   -0.00021531    0.12023364 
   0.16634594    0.00673296    0.01334039    0.02347696    1.06554575    0.08492885   -0.01395443    0.04662210    0.35252123 
   0.16633152   -0.00724219    0.01333488   -0.02400911    1.06628893   -0.08444302   -0.01392275   -0.04605242    0.35254664 
   0.85467846    0.37354342   -0.08020317    0.39036476    0.37794580   -0.03100489   -0.03320758   -0.03540967    0.35248310 
   0.82819452    0.40594306    0.06690435    0.38910443    0.40470251    0.05384446    0.04722844    0.01100443    0.35244979 
   0.82803270   -0.40599412    0.06654318   -0.38921266    0.40486359   -0.05387352    0.04691798   -0.01101680    0.35254138 
   0.85424008   -0.37354474   -0.08020856   -0.39029309    0.37806220    0.03098108   -0.03337007    0.03540937    0.35251647 