  46   46
1 1
     8.394650365563178     0.002508645529899     0.005219370201940
     0.002557267285338     8.406651419999074    -0.005219285886927
     0.005219261900931    -0.005219139586343     5.392104620569698
1 2
    -0.581962677211458    -0.760645544648611     0.000585298092703
     0.761389916172409    -0.582392241930978     0.000013871696809
    -0.000304618972111    -0.000500139697617    -0.764188580566369
1 3
    -1.807200357680453     0.168197486486091    -0.596452023565538
    -0.455610838079937    -0.177384044700331    -0.209711313237287
    -0.863867188507837     0.215084100850673    -0.611617552817253
1 4
    -0.067586258722508     0.097721860128329    -0.088731266141628
    -0.343589013901801     1.493964925119545    -0.468625763342900
     0.206220612218296    -0.888400690850204     0.539652642961834
1 5
    -0.707275107824709     1.089034331617281     0.478658212251471
     0.464760774961577    -1.275229883925204    -0.411263238832912
     0.243844033815961    -0.854314285973428    -0.610826100838289
1 6
     0.996292319326644     0.957932527185802     0.450338859815646
     0.516742219649825     0.429510241318013     0.157650131565822
     0.666809090477446     0.623309114761939     0.540194186170540
1 7
     1.210230270014115    -0.394452413814553    -0.362658365943522
    -0.834991703418509     0.216689187518241     0.311298238890430
    -0.871776785483216     0.265678977269645     0.540159791977861
1 8
    -0.460581739621241    -0.322765385594236     0.117120165103113
    -0.946855852876956    -1.527511662702721     0.623469229591434
     0.618423523185897     0.641606643504881    -0.612363036450947
1 9
     0.996191268728283     0.957857625123446     0.450190567404825
     0.516640139365513     0.429381033357757     0.157485991039040
     0.666932371946418     0.623380040724420     0.540097445795563
1 10
    -0.460502871143757    -0.322687027409362     0.117008529881857
    -0.946697009733262    -1.527352658831326     0.623025764721703
     0.618266715428662     0.641560467963903    -0.612146439244651
1 11
     1.210106380297592    -0.394401138063724    -0.362536392647098
    -0.835094803996120     0.216684306134874     0.311332516479523
    -0.872064489890122     0.265762968642349     0.540189808333718
1 12
    -1.808287271391727     0.167638106824487    -0.597112424680345
    -0.456372883463542    -0.177574246922290    -0.210142080548737
    -0.864317810794038     0.214816082232701    -0.611819780715377
1 13
    -0.706985065268782     1.088777182628270     0.478245985011208
     0.464481749438653    -1.274915941937380    -0.410892667455999
     0.243336908653551    -0.853734290776268    -0.610346098202122
1 14
    -0.067624183718913     0.097769986989017    -0.088715908390894
    -0.343507681484722     1.494080031577049    -0.468796022567308
     0.206244488240693    -0.888456860174027     0.539858324175255
1 15
    -0.011633704857942    -0.166119117614500    -0.115644041479956
    -0.017201906928266     0.211035490895959     0.140056545457949
     0.004069993899855     0.078420049904569     0.072812441537656
1 16
     0.234984772520652    -0.125227264182763     0.179385829910330
     0.023618265620853    -0.035774885051660     0.030170005065828
     0.065872080923916    -0.043079992152215     0.073001763612159
1 17
     0.075917466015593     0.067965049198468    -0.063465773999529
     0.216892147465526     0.123088399360922    -0.170282060570578
    -0.069999909619318    -0.035499862164661     0.073267284775357
1 18
    -0.011605211318762    -0.166265490354250    -0.115598265881131
    -0.017349357835937     0.211148568452268     0.140106959705499
     0.004091518598600     0.078468520591628     0.072749963909183
1 19
     0.075905646224685     0.067954502380631    -0.063483080531061
     0.216934137630149     0.123323831049504    -0.170186982233361
    -0.070088491301887    -0.035509830593769     0.073228293524526
1 20
     0.234995394364253    -0.125223277677739     0.179346229407359
     0.023568550249506    -0.035708461509979     0.030102231168697
     0.065806080135289    -0.043046116326388     0.072871644427474
1 21
    -0.641631317113441    -2.092537759134768    -0.845044247779534
    -0.875118511095013    -1.066158686925794    -0.607554213101547
    -0.599757063780460    -1.484517305768280    -0.678867902762134
1 22
     0.325676531401346     0.316920639232205    -0.103649166651802
     1.534628711821396    -2.035506477676357     1.035147751602162
    -0.985058641303863     1.261387107412852    -0.677646309408273
1 23
    -2.246241900693324    -0.049837478543091     0.948138664626753
     1.167907848342115     0.536540602296105    -0.427631247619075
     1.584001695227755     0.222354921144082    -0.677731248721686
1 24
    -0.641785871235874    -2.092751183604738    -0.845057691579397
    -0.875250981630878    -1.066542226214870    -0.607693837868826
    -0.599667425174364    -1.484485619480581    -0.678827142919144
1 25
    -2.246372074179869    -0.050010397062924     0.948001690688149
     1.167767787225323     0.536466087049819    -0.427491067753736
     1.583529164707836     0.222411572988885    -0.677479075102168
1 26
     0.325804046751365     0.316852653441784    -0.103726590455182
     1.534596923576909    -2.035839073342647     1.035160806354048
    -0.985172911045807     1.261535268808334    -0.677672796557584
1 27
    -0.109550670025233    -0.157141821101432    -0.000072018448533
     0.157310288733459    -0.108908972644176    -0.000165860425799
     0.000219259123366    -0.000204647819696    -0.084025869499899
1 28
    -0.109708614571982    -0.157128800337931    -0.000085857536137
     0.157429990957133    -0.109139872535753    -0.000192648375011
     0.000211161411970    -0.000211645535710    -0.083961834510897
1 29
    -0.013082235363863     0.150855119409396     0.039799223492858
    -0.015946368464296    -0.146160136137744    -0.067414305166635
    -0.042077870936918     0.011915698043079    -0.010074584734824
1 30
    -0.171443738778384     0.107495721728672    -0.078249532407887
    -0.059306696890231     0.011986601639731    -0.000607841288774
     0.031329572995526     0.030449414518218    -0.010033080314112
1 31
    -0.054736085786375    -0.007906464076076     0.038503015704843
    -0.174793177312567    -0.104631049265484     0.068011612549864
     0.010471986992779    -0.042379060516210    -0.009896472760165
1 32
    -0.013083784978531     0.150861200092691     0.039797590785147
    -0.015974273292711    -0.146154887530441    -0.067398900214179
    -0.042059258125773     0.011966803660324    -0.010045883482729
1 33
    -0.054757274046632    -0.007858302312348     0.038479635328805
    -0.174774744945934    -0.104608336168494     0.067979109576803
     0.010434046356203    -0.042388715969692    -0.009869634339491
1 34
    -0.171481148493174     0.107536828522046    -0.078229996675372
    -0.059238217388998     0.011946346062950    -0.000573467074599
     0.031347836978223     0.030415667329613    -0.010014200711742
1 35
     0.081038224241478     0.450697065227611     0.090554223400527
     0.103994641056391    -0.265771732106954    -0.152164016725785
    -0.008428169540355    -0.309909168114245    -0.029103746566436
1 36
    -0.013129357587071     0.253987086206231    -0.085052750131308
     0.106148757926467    -0.104429038899640    -0.021789582249018
     0.028625897014049    -0.135196412876357    -0.027363544613590
1 37
     0.061103916690363    -0.115634307434828     0.086605855210261
    -0.462621824600393    -0.245866337103955     0.154748577102457
     0.272935018085115     0.147749290837928    -0.029306237590009
1 38
     0.074378051666912    -0.055566958532394     0.061342169548565
    -0.203375266466854    -0.191786193164420    -0.062841371184135
     0.102817413315389     0.092307730499554    -0.027220181827448
1 39
    -0.237067148268334     0.023316803289913     0.023650538234697
    -0.124392004047590     0.120068193810487     0.084582620665927
    -0.131491826998592     0.042920592245913    -0.027410876581394
1 40
    -0.419483264246091     0.185068315574217    -0.177242082769639
    -0.161983274744162     0.235023773316812    -0.002168757955962
    -0.264670051469510     0.162711862538656    -0.029065196120782
1 41
     0.074360307492187    -0.055543203466384     0.061341045437702
    -0.203435343574373    -0.191781945916195    -0.062775171543969
     0.102848514591319     0.092326558857142    -0.027234216573905
1 42
    -0.419525098060315     0.185124048371436    -0.177300457236940
    -0.162045731676800     0.235019325963148    -0.002223750252152
    -0.264792812378818     0.162773440168900    -0.029167378876267
1 43
    -0.237150672246048     0.023351204659502     0.023643391978198
    -0.124427102970004     0.120086190161353     0.084592948884111
    -0.131561679816140     0.042942884395313    -0.027417141471320
1 44
     0.081109148334465     0.450965079749642     0.090556909880521
     0.104044566609357    -0.265895556959454    -0.152195700342332
    -0.008449774939388    -0.309977199668523    -0.029065458474261
1 45
     0.061109484241940    -0.115614390615630     0.086601744622925
    -0.462755977677524    -0.246031478559607     0.154657537100875
     0.273017025354661     0.147813412163157    -0.029271685985648
1 46
    -0.013136462965812     0.254098312628725    -0.085080102241782
     0.106152815463744    -0.104455702031769    -0.021753585819566
     0.028606839173561    -0.135197918337521    -0.027319709597321
2 1
    -0.581962528449832     0.761389830284844    -0.000304662291002
    -0.760645630536176    -0.582392390692604    -0.000499947171993
     0.000585443165339     0.000013737918736    -0.764188580566369
2 2
     8.405844761324694    -0.003905820120783     0.001910349099268
    -0.003954441876222     8.395457024238141    -0.007129750111278
     0.001910276549750    -0.007129583169562     5.392104620569691
2 3
    -0.067290460892278    -0.097414765556199    -0.088263000067731
     0.343124524046918     1.494209918359024     0.469720477241647
     0.205803649167853     0.887820331275496     0.540159791979383
2 4
    -1.810541304864647    -0.167456334519601    -0.598500273876072
     0.456634132764035    -0.177552097536813     0.210305576521345
    -0.864859414124014    -0.214767159614250    -0.612363036453422
2 5
     1.209758657386339     0.393497371908282    -0.361698448752277
     0.834687679443108     0.216043903264493    -0.311179827116679
    -0.873206073041985    -0.265819054432044     0.540194186167893
2 6
    -0.460428172648066     0.322243630493020     0.116835306355119
     0.946517187149762    -1.522076819088553    -0.620161790945866
     0.617935857580830    -0.638332270827228    -0.610826100838275
2 7
    -0.709291754882334    -1.089488665424415     0.479841336506587
    -0.465680340860344    -1.275292647434528     0.411686947912071
     0.245665298955837     0.855672981145316    -0.611617552814793
2 8
     0.997113528662537    -0.958293722733008     0.450207449007585
    -0.516982848700885     0.429265137793965    -0.157469351082972
     0.666267260932300    -0.622792634383495     0.539652642962958
2 9
    -0.460352375892310     0.322088299840494     0.116720495748919
     0.946383733031149    -1.521548631300570    -0.619619505995218
     0.617687129587208    -0.637603089955115    -0.610346098202108
2 10
     0.997246434768222    -0.958311019698703     0.450347218945789
    -0.517033351222971     0.429209413149389    -0.157567780897455
     0.666303966982447    -0.622841396287343     0.539858324176379
2 11
    -0.710278328805811    -1.090308642011510     0.480544592498831
    -0.466297651725436    -1.275583189444274     0.412043488398441
     0.246122721030791     0.855929222183680    -0.611819780712914
2 12
    -0.067347535167203    -0.097556442046999    -0.088353671978880
     0.343137223884557     1.494138221534064     0.469631984062909
     0.205874762708842     0.888111486287002     0.540189808335240
2 13
     1.209559853162432     0.393451729705992    -0.361482152680879
     0.834669215462774     0.216012448929778    -0.311133472385114
    -0.873329137461771    -0.265890356334747     0.540097445792915
2 14
    -1.810299623653543    -0.167391491351484    -0.598060404422560
     0.456618490973331    -0.177555906399027     0.210180523024044
    -0.864741021053874    -0.214654447883466    -0.612146439247126
2 15
     0.234829684601578     0.125179301296614     0.179127790277848
    -0.023800333953372    -0.035600207317996    -0.030115530667165
     0.065796661030549     0.042943498682358     0.073228293524952
2 16
    -0.012050285728781     0.166200440147834    -0.115742411606259
     0.017408612220615     0.211337218568976    -0.140267275151169
     0.004375990206745    -0.078512795281655     0.072871644427072
2 17
     0.075952561993916    -0.067900861826215    -0.063537053414857
    -0.216816994344087     0.123590795144245     0.170164514736255
    -0.070001491530801     0.035690901249405     0.072749963909159
2 18
     0.234642450414310     0.125252234999871     0.179201477267464
    -0.023674863267656    -0.035636585028413    -0.030178057731731
     0.065743737276420     0.042871768909500     0.073267284775783
2 19
     0.075987859813338    -0.067790240876603    -0.063470505596352
    -0.216707451562395     0.123413926229339     0.170178950443935
    -0.069948752335095     0.035685306841797     0.072812441537631
2 20
    -0.012082957665983     0.166262886146657    -0.115820905774374
     0.017417356343067     0.211292845120895    -0.140267683244178
     0.004372327138174    -0.078586891554188     0.073001763611757
2 21
     0.324759694353064    -0.316675831415675    -0.103782720767432
    -1.534454015704878    -2.034665681353094    -1.034739080827547
    -0.984378654662617    -1.260170697746012    -0.677479075106242
2 22
    -0.643727109631289     2.094355997683831    -0.844612260104225
     0.876611727546223    -1.066307917012895     0.607410265553353
    -0.599935135071429     1.483952402466571    -0.677672796557984
2 23
    -2.245535774326396     0.050674456606079     0.948807147114198
    -1.166825745364342     0.537207676798427     0.427994509617164
     1.585435970638028    -0.222915585727246    -0.678827142914665
2 24
     0.324983648317512    -0.316589914483045    -0.103729808412247
    -1.534335241369206    -2.034684946584709    -1.034927793670701
    -0.984565857985804    -1.260608247102716    -0.677731248725762
2 25
    -2.245059704397912     0.050621299904779     0.948679506618803
    -1.166797948131536     0.537269700281471     0.428052679328599
     1.585508231071177    -0.222853799561059    -0.678867902757655
2 26
    -0.643466338294627     2.094163608505248    -0.844639666259141
     0.876455535913574    -1.066363608033266     0.607336687196826
    -0.599863958410049     1.483779361269426    -0.677646309408674
2 27
    -0.109151638685399     0.157108420779092     0.000209767154516
    -0.157450370515971    -0.109696848422307    -0.000021969380643
     0.000077709703922    -0.000288693914920    -0.083961834510897
2 28
    -0.108996448369301     0.156990308711226     0.000179648566180
    -0.157461801123664    -0.109463194300079    -0.000020560407466
     0.000067600648388    -0.000292207880695    -0.084025869499899
2 29
    -0.171227999892502    -0.107530340028723    -0.078111453486571
     0.059386102605181     0.011862389670902     0.000665213066051
     0.031492681686267    -0.030230507193435    -0.009869634339598
2 30
    -0.012996615470283    -0.150739305189037     0.039611635392133
     0.016035740722115    -0.146538186951324     0.067462430919707
    -0.042014659070325    -0.011940189511840    -0.010014200711692
2 31
    -0.054479359273565     0.007925472669294     0.038470364381691
     0.174760946054268    -0.104759313237517    -0.068165174735230
     0.010666073090585     0.042407787830353    -0.010045883482672
2 32
    -0.171268573754500    -0.107513114017448    -0.078151292074961
     0.059373599219361     0.011901438696163     0.000661216552983
     0.031465349499977    -0.030258537021804    -0.009896472760272
2 33
    -0.054473458193330     0.007950865177892     0.038482889108007
     0.174752353051157    -0.104768913310386    -0.068174291177814
     0.010719638258969     0.042398354189017    -0.010074584734766
2 34
    -0.013004523616517    -0.150781620411010     0.039651172201102
     0.016020798208002    -0.146452613513521     0.067462162253258
    -0.042034753001616    -0.011907498844548    -0.010033080314062
2 35
    -0.012982487479057    -0.253767343271000    -0.085075967335099
    -0.106058535933659    -0.104016466966633     0.021809343408505
     0.028575590267244     0.135335558690208    -0.027410876581336
2 36
     0.081393129840868    -0.451164395689858     0.090499240868539
    -0.104112805372206    -0.265852620742051     0.152411767315844
    -0.008577580725573     0.310566919455596    -0.029065196120193
2 37
    -0.237370404448900    -0.023387211415319     0.023751139081024
     0.124421096518698     0.119962262934027    -0.084544562742605
    -0.131349546238388    -0.042888626630728    -0.027220181827754
2 38
    -0.419516023791751    -0.185135772596259    -0.177319126579949
     0.161851744569693     0.234753603350526     0.002371417824599
    -0.264422148302944    -0.162494013819686    -0.029306237590911
2 39
     0.061119311430633     0.115494830729678     0.086500792330263
     0.462197254901238    -0.245852819296556    -0.154504266244872
     0.272603297230922    -0.147655575127261    -0.029103746566124
2 40
     0.074339276344403     0.055648718582313     0.061396706831562
     0.203487046862682    -0.191897672825917     0.062763051149240
     0.102770579548082    -0.092388960457637    -0.027363544613342
2 41
    -0.419687953746306    -0.185167447440447    -0.177238228332149
     0.161974139621834     0.234765959400996     0.002329457696866
    -0.264518682634291    -0.162532973535792    -0.029271685986550
2 42
     0.074367422069527     0.055632423885285     0.061379209064447
     0.203577921050872    -0.191959587061908     0.062804736986483
     0.102781412235939    -0.092373208614215    -0.027319709597073
2 43
     0.061181845905418     0.115549600030973     0.086526887907082
     0.462470113171597    -0.245968254530854    -0.154522434613066
     0.272673016984704    -0.147670880079978    -0.029065458473949
2 44
    -0.012990173259569    -0.253846227396982    -0.085081338706172
    -0.106067919767638    -0.104074308812965     0.021820696357266
     0.028591211108331     0.135407199079428    -0.027417141471262
2 45
    -0.237387382961746    -0.023447730577931     0.023694370566348
     0.124444409529615     0.119965744520372    -0.084510489413958
    -0.131381402712336    -0.042906146946979    -0.027234216574211
2 46
     0.081376424236018    -0.451241360400941     0.090576052827703
    -0.104071580353433    -0.265882196305088     0.152434824939362
    -0.008569528063018     0.310704022336767    -0.029167378875678
3 1
    -1.807212069420723    -0.455606502018933    -0.863864740274060
     0.168193713265655    -0.177385346493137     0.215084636351491
    -0.596458922978707    -0.209709696374602    -0.611616006086823
3 2
    -0.067281114660838     0.343125639537468     0.205802705373096
    -0.097407262959125     1.494209107652058     0.887818823130178
    -0.088255560968267     0.469720882198898     0.540158681171720
3 3
    12.018840692798189     0.679301864383955     3.016147102200836
     0.679301780149058    51.375366151118975    16.767008830009065
     3.016147081502338    16.767008942915023     9.758402085842244
3 4
     0.109859141826846    -0.139084835275789     0.105029819880765
     0.139254818969767    -0.964113728600174     0.258843504511025
     0.105264678456218    -0.259503583970107     0.027970443684520
3 5
    -0.699441955694973    -0.138377408426929     0.190660540127844
    -0.551957712098672    -0.075787138477321     0.191998167084459
    -0.319464705519575    -0.069895045332292     0.177847574609515
3 6
    -0.054712372323201    -0.028419615905551     0.003911741371704
    -0.077913341498513    -0.116443690218927    -0.012344733194104
    -0.012814037841625    -0.002857583016553    -0.037052097916662
3 7
     0.168243985318977     0.066871716285466    -0.029015116879579
     0.825414645977166    -0.346919090287507    -0.560994769159770
     0.500343500170569    -0.255370220735672    -0.228804763951671
3 8
    -0.406165724592941     0.336920179921756    -0.476565867835516
    -0.399429340657637     0.461580115373995    -0.213397173483080
    -0.643470261948708     0.493173888935724    -0.488472994452488
3 9
     0.665104888072648    -6.294637500062446    -2.432176733998919
    -6.628736385974502    -6.805325977900727    -4.376584216658205
    -2.575169718083786    -4.295390532809017    -0.338626971137888
3 10
     0.067289532240754    -0.304257608844685     0.098869224124386
     0.109528101227978    -0.842797536954964     0.310996957341436
     0.071046779293504    -0.262271407748091     0.178006859343285
3 11
    -0.411438108814136     0.102777284041920     0.156461146631544
    -0.401795812664140    -0.238674086032893     0.184247422206067
    -0.237865698366123    -0.043300792128889     0.057926306481756
3 12
    -0.014374994711996    -0.046922056918967    -0.041102922277714
    -0.046918368072691    -0.092326534445047    -0.005742226218278
    -0.041092428029918    -0.005762116333061    -0.024449829737638
3 13
     0.217123144349538     0.023458818735458    -0.104583786850934
     0.759650776007238    -0.162513730541160    -0.802380151892704
     0.423697670878110    -0.306071492991341    -0.487653664551876
3 14
    -0.191958323699185     0.298368349130942    -0.178026414904098
    -0.298740159910129     0.283867443595936    -0.343735565617900
    -0.178505989402691     0.344238875027330    -0.203204235335779
3 15
    -0.456486500617464     0.120095017615188     0.010122403986310
     0.478100166289808     0.060754809397239    -0.027696283774736
    -0.023029737042987     0.017463898163921    -0.044202883519654
3 16
    -1.021387656164628     0.807027458745897    -0.191805536944894
     1.648310340993517    -0.235312247545944     0.192408434282500
    -0.100778530985407     0.136630572608203     0.293957650934248
3 17
    -0.138469015351621    -0.164607468610040    -0.037436484185909
    -0.346035770354210     0.513826795394293     0.063638409091518
    -0.133344618013263     0.052428874156976     0.067546876029638
3 18
     0.029754113157773    -0.027138993141914     0.014884822392691
    -0.051278530934330    -0.087962558575923     0.008744217132964
     0.046100966863639    -0.046672770407544     0.007450325904857
3 19
     0.037604282554141    -0.057399129160386     0.034265506592913
    -0.003589447410049    -0.053172302251361     0.161713457814816
     0.049924992701943     0.155586790078454    -0.006488090207134
3 20
     0.014431234836982    -0.004561815960052     0.040464980247655
    -0.079744984536416    -0.011038451954801     0.148583591729679
     0.158742291570535     0.076657671442228    -0.175375943154947
3 21
   -10.018921278866291     2.732708112382828    -0.084414264351024
     5.083568781767701   -41.324561512243527   -11.068697742111764
     0.731792200388222   -11.334581239898251    -9.633759083545895
3 22
    -0.231621933825092     0.118728815814865    -0.087850334735795
    -0.212220969914072     0.966494757087433    -0.409881626656112
    -0.184605353748543     0.213859257678975    -0.113643764090785
3 23
     0.560169142408877     0.222158456981729    -0.238880165714575
     0.474694594029366     0.252977940882379    -0.196458648715769
     0.279587027633142     0.125592147665240    -0.103443400626655
3 24
     0.068078212652152     0.067066091160159     0.046958343219434
     0.098322276678811     0.167292929886728     0.032922661478929
     0.035881650464347     0.025150633803417     0.023099965636765
3 25
    -0.141534087177552    -0.189186026406851     0.034750825251546
    -1.172084710427760     0.071638167153459     0.430271276694845
    -0.691005826541080     0.164658436295533     0.176473562685351
3 26
     0.409606083489706    -0.340650178951499     0.139138209565855
     0.435178085035911    -0.433545311984394     0.204355426395094
     0.499880432163025    -0.358296751270494     0.148601297529202
3 27
     0.698200002642635     0.319128363830911    -0.001893530547902
    -0.808399017365416    -0.958047006218307     0.041973208314857
     0.005695039953009    -0.018390497779184     0.010880859918087
3 28
    -0.034718474301445     0.084629991782266    -0.030579528389322
     0.106104154623478     0.141744477029675    -0.121144887775068
    -0.222230156351709    -0.192083790940306    -0.026528136598564
3 29
     0.504405512398197     2.730052261111119     0.647234300437233
     0.608650207154210    -3.035074009611542    -1.511419890439999
    -0.044240320228833    -1.123170978004654     1.515694319860785
3 30
     0.014282528397023     0.002721422558281    -0.005662184129442
    -0.120776571801467     0.029287298157198    -0.009075186089120
     0.010434206636200     0.010868630533949    -0.012650273104210
3 31
    -0.005393144696651    -0.012191978384138     0.008229361201543
     0.081112541096761    -0.038227237429932    -0.025557921618334
     0.025505015295148    -0.014875950796387    -0.004150670149332
3 32
     0.001811303847312    -0.000778796570916     0.000824540862989
     0.006698524343941     0.019866067508282     0.000130694675045
     0.003510263099885     0.009739271482428     0.007666263083843
3 33
    -0.001078937551122     0.063273258585410    -0.015795976304941
     0.012167780329721    -0.064165628176279     0.014467234430440
    -0.025504640779570    -0.105778861350578     0.015481413968966
3 34
    -0.023351806189533    -0.009162464236583     0.012889203242260
    -0.028611520655461    -0.051802336253437     0.024074802416486
    -0.050817063403394    -0.007293341533306     0.010384250505911
3 35
     0.086750763460868    -0.117667362855654    -0.010988825679978
    -0.154558013792551    -0.008806884818166    -0.001073130344320
    -0.026193959897358    -0.028222734395660    -0.002846095008351
3 36
    -0.240124172707454    -0.173933668203878     0.006128119267126
     0.122299529387147     0.172081433172598    -0.013472292961564
    -0.042595554370627    -0.001590858126888     0.016684854980330
3 37
     0.107522797410798     0.064874858826983    -0.012598648804802
     0.090005295114838     0.130738511691114    -0.025310635131486
     0.041515950123833     0.040511951020520     0.002696937382382
3 38
     0.008610331127755    -0.003766258280195     0.006466050832312
     0.071290783450431     0.053024910150655    -0.011587131527570
    -0.005386290885282    -0.024872177999287    -0.002122005624549
3 39
    -0.008896976910752     0.026020874003130    -0.036262513569726
     0.009941169990737    -0.014670717344090    -0.071764373102015
    -0.016098562766349    -0.032620257002904     0.029649586663618
3 40
    -0.010645280496265     0.009789714999558     0.017581194987058
     0.013049131897240    -0.026023022139713    -0.071864535104507
     0.031794684657916    -0.029317685292264     0.058880130576403
3 41
     0.075875803504497    -0.021504461390993     0.000118492211162
    -0.052413075916079     0.110787189649153     0.016348147260567
    -0.018458268250091     0.038069853001568     0.011850390333596
3 42
     0.081970391428738    -0.718069579871805     0.030890185977254
    -1.296697190632616     0.346210306210994    -0.195453338034877
    -0.007802449218367    -0.117822106402956    -0.589439695095674
3 43
     0.107082299865778     0.053906953827726     0.062128316323247
     0.830292691459395    -0.497016795017951    -0.125723006522553
     0.281803238751028    -0.138379090847320    -0.133839666622522
3 44
     0.006874475033996    -0.006175037759264    -0.015474612967905
    -0.004060731534380     0.117608972424770     0.030269019100303
     0.010674618445325     0.137735568615152     0.017869961812336
3 45
    -0.063762521575959    -0.004564366622889     0.003846805041948
     0.020121736818064    -0.033932043892926    -0.043436975518409
    -0.040326498140767    -0.099689972530049     0.061962265020532
3 46
    -0.012679160236709    -0.025754825777308    -0.020658499200085
    -0.048390689503621    -0.041092373941135     0.055946502135125
    -0.025084938741755     0.101462534871481     0.056524144824476
4 1
    -0.067576971154748    -0.343590444816010     0.206220012722134
     0.097714608258588     1.493964738091542    -0.888398892477444
    -0.088724131402925    -0.468626151805638     0.539651398735638
4 2
    -1.810553159715662     0.456629424289197    -0.864856738568199
    -0.167452863273685    -0.177552772640782    -0.214767616331082
    -0.598507196319746     0.210303736697435    -0.612361538691599
4 3
     0.109859148821536     0.139255756498627     0.105265266368380
    -0.139083905640744    -0.964113732907047    -0.259502930114438
     0.105029235102552     0.258844155653390     0.027970440963080
4 4
    12.022881790521158    -0.697593595065218     3.026573345704594
    -0.697593523358538    51.403843165973150   -16.736166725760221
     3.026573325582401   -16.736166827838030     9.735532642151243
4 5
    -0.411651198260040    -0.102362588250112     0.156336656471497
     0.402466851551445    -0.238455837294429    -0.184229636682177
    -0.237550901155822     0.043249078271990     0.057643775624246
4 6
    -0.406907713322732    -0.337410302261077    -0.476846171593422
     0.398806457901497     0.461699263849794     0.213104452623050
    -0.642736660947879    -0.492793986156359    -0.487380779029814
4 7
     0.217576490045760    -0.023195852021794    -0.105366404706894
    -0.759545924525576    -0.162161958463324     0.803847898858655
     0.423089898253004     0.306020337544535    -0.488472931905135
4 8
    -0.054821980851838     0.028465600905207     0.003994612050540
     0.078231802410376    -0.116423968238620     0.012432988125824