# epsilon and Z* of atoms 1 3 5 13 21 25 29
   2.22408067   -0.00000000   -0.00000000   -0.00000000    2.04091151    0.00000000   -0.00000000    0.00000000    1.86581746 
  -0.84154786    0.00000000   -0.01326055   -0.00000000   -0.80589151   -0.00000000   -0.02516307    0.00000000   -0.81774290 
   3.37424317    0.00000000   -0.00000000    0.00000000    3.35426619    0.00000000    0.00000000    0.00000000    3.44472073 
   2.09044481    0.05954368    0.03527035    0.03713388    2.04304697   -0.00752561   -0.02277139   -0.02828977    2.08689946 
   0.02816511    0.00694592   -0.01037173   -0.00894060    0.06835965   -0.00383451    0.00867259    0.00386314    0.06100418 
   0.08547048    0.00000000   -0.00000000   -0.00000000    0.09859621    0.00780071    0.00000000   -0.04029330    0.09756467 
   0.21667412    0.00000000    0.00000000    0.00000000    0.17190554   -0.04404028    0.00000000   -0.04893345    0.10220078 
  -2.90285618   -0.00297969    0.00046932    0.00216919   -2.88375128   -0.00679943   -0.00319798   -0.00950065   -2.90453096 