36   
30   

1    
  0.0059483247596644   0.0147106552127530   0.0121743195195898
  -0.0030050206   -0.0055150400   -0.0047752100
   0.0013415494   -0.0008036300   -0.0010916700
   0.0010718894    0.0004376600   -0.0000912200
   0.0011303594    0.0004269000    0.0024418800
   0.0051672394    0.0007104900   -0.0000481900
  -0.0049296106    0.0004174200    0.0005431500
  -0.0044183506    0.0000402100   -0.0000962700
   0.0056781994    0.0003297500    0.0004931900
  -0.0048001706    0.0012601500    0.0013328500
   0.0052402594    0.0010670000    0.0008297500
   0.0047598894   -0.0000100200    0.0004605400
  -0.0053442706    0.0002786100   -0.0001308200
   0.0014049794   -0.0002518300    0.0002494400
  -0.0013716506    0.0002541600   -0.0002385900
  -0.0013720906    0.0002176100    0.0002139300
   0.0013825694   -0.0003011700   -0.0002816200
  -0.0014173806   -0.0002585400   -0.0002449200
   0.0013574094    0.0002605600    0.0002461800
   0.0013667994    0.0002474300   -0.0002203700
  -0.0013894906   -0.0002583600    0.0002715100
  -0.0000265606   -0.0008860500    0.0006618500
  -0.0000239606    0.0006528700   -0.0007303800
   0.0001195394    0.0005370100    0.0005135700
   0.0001230794   -0.0009992600   -0.0008803400
   0.0004298594   -0.0017834900    0.0011497600
   0.0004467294    0.0024184700   -0.0017633200
  -0.0014903706    0.0028203300    0.0020306400
  -0.0014659706   -0.0013960100   -0.0008821800
  -0.0006546306    0.0000316600   -0.0000835200
   0.0006612694   -0.0000475200    0.0000633500
   0.0006873094   -0.0000038300   -0.0000457300
  -0.0006280106    0.0000750600    0.0001010400
   0.0006515994    0.0000587100    0.0000874200
  -0.0006644106   -0.0000204700   -0.0000594800
  -0.0006670606   -0.0000428000    0.0000602100
   0.0006484794    0.0000359600   -0.0000864300

1    
  0.0200000000000000   0.0000000000000000   0.0000000000000000
  -0.0094284703    0.0000000000   -0.0003355600
   0.0032153297    0.0000000000   -0.0006327500
   0.0018952997    0.0000000000   -0.0000644600
   0.0020867097    0.0000000000    0.0025456300
   0.0054229897    0.0002211500   -0.0003358200
  -0.0046691403   -0.0000647200    0.0002525100
  -0.0054878803   -0.0001317900   -0.0001977300
   0.0046192097    0.0001615600    0.0003966900
  -0.0046691403    0.0000647200    0.0002525100
   0.0054229897   -0.0002211500   -0.0003358200
   0.0046192097   -0.0001615600    0.0003966900
  -0.0054878803    0.0001317900   -0.0001977300
   0.0014224297   -0.0002643600    0.0002495000
  -0.0013542503    0.0002467400   -0.0002321900
  -0.0014108403    0.0002829900    0.0002668900
   0.0013459997   -0.0002270000   -0.0002195000
  -0.0013542503   -0.0002467400   -0.0002321900
   0.0014224297    0.0002643600    0.0002495000
   0.0013459997    0.0002270000   -0.0002195000
  -0.0014108403   -0.0002829900    0.0002668900
  -0.0000387903   -0.0008492500    0.0007502400
  -0.0000349403    0.0006877000   -0.0006413500
  -0.0000387903    0.0008492500    0.0007502400
  -0.0000349403   -0.0006877000   -0.0006413500
   0.0006527897   -0.0014939200    0.0009334800
   0.0006638897    0.0027242600   -0.0019816500
   0.0006527897    0.0014939200    0.0009334800
   0.0006638897   -0.0027242600   -0.0019816500
  -0.0006519803    0.0000335800   -0.0000711400
   0.0006638097   -0.0000455400    0.0000757100
   0.0006438697   -0.0000381100   -0.0000743200
  -0.0006716003    0.0000405200    0.0000722500
   0.0006638097    0.0000455400    0.0000757100
  -0.0006519803   -0.0000335800   -0.0000711400
  -0.0006716003   -0.0000405200    0.0000722500
   0.0006438697    0.0000381100   -0.0000743200

3    
  0.0059483247596644   0.0147106552127530   0.0121743195195898
   0.0013758208    0.0004252997    0.0010639292
  -0.0001576492    0.0004313797    0.0005530192
  -0.0022030892   -0.0013563603   -0.0034322008
   0.0000551708   -0.0000549103    0.0012069492
   0.0050354608   -0.0000555203   -0.0002310708
  -0.0046408392    0.0000168797    0.0001397592
  -0.0053310292    0.0000483197    0.0000801692
   0.0056582408    0.0004978397    0.0004253492
  -0.0051110292    0.0002042597    0.0003020392
   0.0052343508    0.0002528697    0.0003565892
   0.0051991408   -0.0002811803    0.0002656492
  -0.0051311292    0.0001454597   -0.0005018408
   0.0013907308   -0.0002562403    0.0002435892
  -0.0013938592    0.0002545397   -0.0002494608
  -0.0013849192    0.0002646897    0.0002521992
   0.0013778208   -0.0002538803   -0.0002431608
  -0.0013959392   -0.0002587803   -0.0002466308
   0.0014008108    0.0002700797    0.0002532692
   0.0013757608    0.0002495097   -0.0002455508
  -0.0013749892   -0.0002507503    0.0002420892
  -0.0000171992   -0.0007579103    0.0007101892
   0.0000216908    0.0007783397   -0.0006922208
  -0.0000176292    0.0008537197    0.0007265592
   0.0000214508   -0.0007208803   -0.0006518808
   0.0001815908   -0.0021042803    0.0014876492
  -0.0001761692    0.0020759197   -0.0014521908
   0.0001835908    0.0018555697    0.0012502192
  -0.0001748492   -0.0022388403   -0.0016023808
  -0.0006567292    0.0000432597   -0.0000692308
   0.0006563008   -0.0000396503    0.0000752592
   0.0006559008   -0.0000501203   -0.0000776908
  -0.0006664592    0.0000288497    0.0000663192
   0.0006633508    0.0000324097    0.0000683592
  -0.0006534292   -0.0000535303   -0.0000799208
  -0.0006594292   -0.0000361603    0.0000732492
   0.0006591808    0.0000397997   -0.0000669708

3    
 -0.0059483247596644  -0.0147106552127530  -0.0121743195195898
  -0.0013168797   -0.0004391803   -0.0010470597
   0.0001680303   -0.0004335103   -0.0005627297
   0.0021333203    0.0013634097    0.0008984603
  -0.0000541397    0.0000547597    0.0013049403
   0.0050566703    0.0003422297   -0.0003604797
  -0.0054491897   -0.0003021703    0.0004474803
  -0.0047780797   -0.0003378803   -0.0006670497
   0.0044332803   -0.0002129203    0.0001644603
  -0.0049857097    0.0000849197    0.0002881703
   0.0048640403   -0.0005309103   -0.0009299197
   0.0049080903   -0.0000090403    0.0003265103
  -0.0049698197    0.0001456297   -0.0000920297
   0.0013862203   -0.0002486703    0.0002435903
  -0.0013831297    0.0002504797   -0.0002377697
  -0.0013709697    0.0002519897    0.0002417803
   0.0013781003   -0.0002627703   -0.0002506997
  -0.0013803097   -0.0002576003   -0.0002423097
   0.0013757203    0.0002464197    0.0002358003
   0.0013809503    0.0002555197   -0.0002457497
  -0.0013816297   -0.0002541103    0.0002491103
   0.0000153803   -0.0007795003    0.0006809903
  -0.0000194897    0.0007598797   -0.0006992997
   0.0000150403    0.0006844397    0.0006686003
  -0.0000196697   -0.0008170103   -0.0007436197
  -0.0002000097   -0.0020994103    0.0014247103
   0.0001944903    0.0021266897   -0.0014598497
  -0.0001978597    0.0023495397    0.0016542303
   0.0001959603   -0.0019664703   -0.0013008897
  -0.0006592397    0.0000359497   -0.0000776297
   0.0006596603   -0.0000395303    0.0000716003
   0.0006597403   -0.0000286303   -0.0000689897
  -0.0006490597    0.0000498297    0.0000803203
   0.0006526503    0.0000467197    0.0000785103
  -0.0006625497   -0.0000254603   -0.0000668997
  -0.0006560497   -0.0000426903    0.0000734103
   0.0006564403    0.0000390597   -0.0000796997

5    
  0.0200000000000000   0.0000000000000000   0.0000000000000000
   0.0003812897   -0.0000631606    0.0000897297
  -0.0004363603    0.0006238694   -0.0004858703
  -0.0001500203   -0.0001341106   -0.0010386203
   0.0009264697    0.0003221894    0.0010846397
  -0.0141998103   -0.0061509706    0.0047921097
  -0.0049780703   -0.0000181306    0.0001883897
  -0.0052103203   -0.0003543706   -0.0003506503
   0.0053795697    0.0002319094    0.0005015497
  -0.0045848203    0.0000634894   -0.0003308003
   0.0047557997    0.0001445394   -0.0002732803
   0.0050380597   -0.0000607306    0.0002155297
  -0.0008599803   -0.0000263806   -0.0001410803
   0.0012302997   -0.0002042206    0.0002044997
  -0.0014315003    0.0003065794   -0.0002868003
  -0.0013735803    0.0002548494    0.0002395097
   0.0013759597   -0.0002550006   -0.0002488803
  -0.0014002403   -0.0002666506   -0.0002489303
   0.0013931597    0.0002656694    0.0002497897
   0.0013848397    0.0002939194   -0.0002792003
  -0.0011237303   -0.0004207406    0.0003817297
   0.0006065997    0.0000938394    0.0000174997
  -0.0000011503    0.0008036494   -0.0007229103
  -0.0000236803    0.0007636394    0.0007020197
   0.0000306997   -0.0007929206   -0.0006896603
   0.0136386797    0.0025862994   -0.0022773403
  -0.0000470503    0.0019401494   -0.0013283203
   0.0003724397    0.0021316794    0.0014581197
  -0.0005469803   -0.0020583006   -0.0014419603
  -0.0006636603    0.0000432494   -0.0000757003
   0.0006185197   -0.0000685606    0.0000961797
   0.0006625397   -0.0000355106   -0.0000672103
  -0.0006597403    0.0000338394    0.0000717697
   0.0006544697    0.0000386094    0.0000753297
  -0.0006545703   -0.0000405506   -0.0000747803
  -0.0007657003   -0.0000402606    0.0000734597
   0.0006615697    0.0000485994   -0.0000798603

5    
 -0.0200000000000000   0.0000000000000000   0.0000000000000000
  -0.0003723000    0.0000781003   -0.0001026303
   0.0004328600   -0.0006331697    0.0004948097
   0.0001566000    0.0001318303   -0.0014748603
  -0.0009179700   -0.0003130597    0.0014279697
   0.0254117300    0.0069412603   -0.0057784903
  -0.0051188000   -0.0002700397    0.0004020897
  -0.0048883000    0.0000657403   -0.0002398603
   0.0047193300    0.0000588603    0.0000866597
  -0.0055146000    0.0002256703    0.0009185497
   0.0053416500   -0.0004415797   -0.0003180803
   0.0050637200   -0.0002282897    0.0003755797
  -0.0093601400    0.0003112303   -0.0004466203
   0.0015425700   -0.0003056097    0.0002866297
  -0.0013435600    0.0002000603   -0.0002017803
  -0.0013812300    0.0002640003    0.0002559397
   0.0013789700   -0.0002639197   -0.0002466303
  -0.0013750100   -0.0002518297   -0.0002418903
   0.0013815200    0.0002529903    0.0002408597
   0.0013699200    0.0002138603   -0.0002140903
  -0.0016326100   -0.0000853197    0.0001106497
  -0.0006098400   -0.0016490597    0.0013872097
   0.0000032300    0.0007379603   -0.0006715503
   0.0000223400    0.0007781803    0.0006964897
  -0.0000293800   -0.0007493197   -0.0007089103
  -0.0146666000   -0.0072780697    0.0055771797
   0.0000682500    0.0022596403   -0.0015810103
  -0.0003995200    0.0020721403    0.0014440097
   0.0005700000   -0.0021434897   -0.0014588703
  -0.0006527600    0.0000361803   -0.0000713203
   0.0006983300   -0.0000105597    0.0000506697
   0.0006533300   -0.0000437397   -0.0000798503
  -0.0006562100    0.0000453603    0.0000753397
   0.0006617500    0.0000408703    0.0000718697
  -0.0006620000   -0.0000388997   -0.0000722703
  -0.0005494200   -0.0000384997    0.0000732097
   0.0006541500    0.0000305203   -0.0000670003

5    
  0.0000000000000000   0.0200000000000000   0.0000000000000000
   0.0000950697    0.0012013800   -0.0005658600
   0.0000139197    0.0002212100   -0.0000370700
  -0.0003367503    0.0001312800   -0.0015770400
   0.0005009797    0.0001500700    0.0010916500
  -0.0014541503   -0.0077359400    0.0045680200
  -0.0049231503    0.0000397600    0.0001162800
  -0.0052649603   -0.0002415500   -0.0003535200
   0.0051406497    0.0001717200    0.0003427400
  -0.0049687403    0.0000771100    0.0002184900
   0.0047561197    0.0008508000   -0.0002571100
   0.0049700997    0.0000082300    0.0001500600
  -0.0048694903   -0.0012890200   -0.0000078700
   0.0011695397   -0.0001557900    0.0000978200
  -0.0013758403    0.0002453800   -0.0002201600
  -0.0013849103    0.0002632400    0.0002479300
   0.0013767797   -0.0002495500   -0.0002433500
  -0.0013926603   -0.0002651000   -0.0002472300
   0.0014046397    0.0002639400    0.0002502300
   0.0014487697    0.0003415500   -0.0002887700
  -0.0012841303   -0.0001938400    0.0001759900
   0.0014113297   -0.0001065000   -0.0002665700
   0.0000530397    0.0008631000   -0.0007678900
  -0.0000448403    0.0007802600    0.0007501900
   0.0000083897   -0.0007544800   -0.0006783900
   0.0044865697    0.0036568800   -0.0010676400
  -0.0000190703    0.0018304200   -0.0012378700
   0.0005753997    0.0019740400    0.0013246800
  -0.0001132703   -0.0021307200   -0.0014692000
  -0.0006693203    0.0000332000   -0.0000689600
   0.0006677497   -0.0000451000    0.0000734300
   0.0006555197   -0.0000336800   -0.0000731500
  -0.0006640303    0.0000280400    0.0000660700
   0.0006566197    0.0000329300    0.0000722100
  -0.0006547703   -0.0000364400   -0.0000740100
  -0.0006357203    0.0000180600    0.0000324700
   0.0006646197    0.0000551100   -0.0000766000

5    
  0.0000000000000000  -0.0200000000000000   0.0000000000000000
  -0.0000618692   -0.0011460389    0.0004940200
  -0.0000155892   -0.0002137389    0.0000321400
   0.0003319008   -0.0001312089   -0.0009375900
  -0.0004912692   -0.0001482489    0.0014183300
   0.0116212908    0.0079303511   -0.0051522300
  -0.0051722292   -0.0003262989    0.0004726200
  -0.0048431092   -0.0000522489   -0.0002385700
   0.0049655008    0.0001197211    0.0002499000
  -0.0051267992    0.0002105111    0.0003691100
   0.0053377508   -0.0011181989   -0.0003323200
   0.0051352808   -0.0002971789    0.0004408500
  -0.0052055792    0.0015794011   -0.0005829600
   0.0016054608   -0.0003520089    0.0003918300
  -0.0014010292    0.0002610411   -0.0002684100
  -0.0013703492    0.0002540211    0.0002462500
   0.0013786008   -0.0002675289   -0.0002508800
  -0.0013832092   -0.0002519189   -0.0002421900
   0.0013710608    0.0002531011    0.0002391200
   0.0013066708    0.0001634911   -0.0002037400
  -0.0014704392   -0.0003160089    0.0003205300
  -0.0014320792   -0.0014365889    0.0016837100
  -0.0000512192    0.0006753211   -0.0006235500
   0.0000424908    0.0007575811    0.0006461400
  -0.0000063392   -0.0007841689   -0.0007173200
  -0.0046230392   -0.0078373789    0.0040237000
   0.0000380208    0.0023720311   -0.0016731500
  -0.0005889292    0.0022315511    0.0015780400
   0.0001307408   -0.0020751889   -0.0014349200
  -0.0006467192    0.0000461111   -0.0000778100
   0.0006478508   -0.0000338889    0.0000738500
   0.0006600408   -0.0000451389   -0.0000735400
  -0.0006514892    0.0000506911    0.0000805500
   0.0006592308    0.0000461811    0.0000746700
  -0.0006611892   -0.0000426989   -0.0000728800
  -0.0006802092   -0.0000989789    0.0001165400
   0.0006507908    0.0000235511   -0.0000698400

5    
  0.0059483247596644   0.0147106552127530   0.0121743195195898
   0.0001444708    0.0004945197    0.0003126294
  -0.0001797992    0.0003344897   -0.0000200706
  -0.0000159892   -0.0001823303   -0.0012064206
   0.0005160208    0.0001381797    0.0010728494
  -0.0024017392   -0.0046247703    0.0011151794
  -0.0049981592   -0.0000793603    0.0002046494
  -0.0052223392   -0.0002435203   -0.0003649006
   0.0050889308    0.0001623297    0.0003298694
  -0.0052283592    0.0001168997    0.0004883594
   0.0047576408    0.0006496497   -0.0003305206
   0.0050366008   -0.0000959103    0.0002224094
  -0.0037534292   -0.0007806203   -0.0008104206
   0.0012862208   -0.0002598903    0.0001453094
  -0.0013982592    0.0002776597   -0.0002352006
  -0.0013826192    0.0002638197    0.0002492494
   0.0013765408   -0.0002507903   -0.0002440206
  -0.0013885292   -0.0002633203   -0.0002477006
   0.0014002208    0.0002614397    0.0002483194
   0.0013956908    0.0003047597   -0.0002443406
  -0.0012780092   -0.0003011403    0.0002503894
   0.0005241008   -0.0006154803   -0.0000883106
   0.0000139608    0.0008034897   -0.0007183506
  -0.0000357792    0.0007804197    0.0007516194
  -0.0000023092   -0.0007382603   -0.0006784806
   0.0052916608    0.0020436797    0.0012974094
  -0.0000136492    0.0019891897   -0.0013673906
   0.0004823708    0.0019998897    0.0013583794
   0.0000302508   -0.0021880503   -0.0014768406
  -0.0006625092    0.0000388197   -0.0000741206
   0.0006483408   -0.0000520803    0.0000770394
   0.0006547908   -0.0000391303   -0.0000776106
  -0.0006638592    0.0000307697    0.0000689594
   0.0006575408    0.0000350097    0.0000733494
  -0.0006555392   -0.0000405003   -0.0000769806
  -0.0006848992   -0.0000211703    0.0000654394
   0.0006604208    0.0000513097   -0.0000697306

5    
 -0.0059483247596644  -0.0147106552127530  -0.0121743195195898
  -0.0001438694   -0.0005004197   -0.0003179900
   0.0001781706   -0.0003310097    0.0000184000
   0.0000154906    0.0001824603   -0.0013038100
  -0.0005104794   -0.0001369297    0.0014378600
   0.0125626506    0.0048715403   -0.0017979300
  -0.0050953594   -0.0002070297    0.0003841800
  -0.0048839194   -0.0000492897   -0.0002270900
   0.0050157606    0.0001290303    0.0002621700
  -0.0048634994    0.0001716803    0.0000982600
   0.0053338006   -0.0009267597   -0.0002608000
   0.0050680906   -0.0001930597    0.0003686700
  -0.0063411894    0.0010792803    0.0002306900
   0.0014881906   -0.0002465497    0.0003430900
  -0.0013781294    0.0002283403   -0.0002529900
  -0.0013726994    0.0002536503    0.0002450700
   0.0013788106   -0.0002664697   -0.0002503800
  -0.0013874394   -0.0002540397   -0.0002418600
   0.0013754606    0.0002557703    0.0002410700
   0.0013602106    0.0002011503   -0.0002485500
  -0.0014770094   -0.0002048097    0.0002415500
  -0.0005237894   -0.0009162897    0.0014912200
  -0.0000116194    0.0007363003   -0.0006741500
   0.0000335806    0.0007580303    0.0006450000
   0.0000044306   -0.0008010797   -0.0007180100
  -0.0053922594   -0.0062320897    0.0016977000
   0.0000325606    0.0022125203   -0.0015432700
  -0.0004987094    0.0022054803    0.0015447000
  -0.0000121194   -0.0020169397   -0.0014267300
  -0.0006536794    0.0000405403   -0.0000727300
   0.0006674406   -0.0000270097    0.0000703200
   0.0006608406   -0.0000398197   -0.0000691100
  -0.0006517494    0.0000480503    0.0000778000
   0.0006584106    0.0000441803    0.0000736400
  -0.0006605894   -0.0000387797   -0.0000699600
  -0.0006308694   -0.0000572797    0.0000809500
   0.0006550806    0.0000276503   -0.0000769800

13   
  0.0200000000000000   0.0000000000000000   0.0000000000000000
   0.0000347303    0.0000321094   -0.0000281400
  -0.0000324997    0.0000111294   -0.0000104800
   0.0000092003   -0.0000071006   -0.0012483500
  -0.0000128797    0.0000017394    0.0012514500
   0.0048906803   -0.0000760806   -0.0001199800
  -0.0050904597   -0.0001303506    0.0002843500
  -0.0050472397   -0.0001523606   -0.0002943100
   0.0050494303    0.0001443394    0.0002951700
  -0.0050597297    0.0001484094    0.0003058200
   0.0050524603   -0.0001603506   -0.0002974500
   0.0050592703   -0.0002150006    0.0003554900
  -0.0047921397    0.0000480394   -0.0002202300
  -0.0255828397    0.0006302794   -0.0004365300
  -0.0008832597    0.0010107194   -0.0008443400
  -0.0013770997    0.0002580894    0.0002469800
   0.0013796203   -0.0002586406   -0.0002469300
  -0.0013889597   -0.0002580306   -0.0002444400
   0.0013871503    0.0002575494    0.0002443200
   0.0061093303   -0.0005930106    0.0004260200
   0.0008029803   -0.0007795006    0.0006625700
   0.0107779903    0.0025458494   -0.0019307100
  -0.0010245597   -0.0000786506   -0.0000242200
  -0.0000006397    0.0007691294    0.0006953600
   0.0000005203   -0.0007679106   -0.0006985700
  -0.0003408197   -0.0015617206    0.0010277700
   0.0002076503    0.0020688594   -0.0014323900
  -0.0000207897    0.0021115294    0.0014581700
   0.0000237003   -0.0021068406   -0.0014448800
  -0.0006754797    0.0000673294   -0.0000953100
   0.0105772703   -0.0036604206    0.0029203700
   0.0006578403   -0.0000396706   -0.0000742400
  -0.0006573997    0.0000396694    0.0000736400
   0.0006581903    0.0000397394    0.0000735500
  -0.0006582297   -0.0000397006   -0.0000739700
  -0.0005001797   -0.0001368606    0.0001510700
   0.0004671903    0.0008376894   -0.0007066300

13   
 -0.0200000000000000   0.0000000000000000   0.0000000000000000
  -0.0000334697   -0.0000314286    0.0000273603
   0.0000323303   -0.0000113186    0.0000107403
  -0.0000095397    0.0000069414   -0.0012635797
   0.0000134603   -0.0000015786    0.0012602403
   0.0052022703    0.0003596014   -0.0004666997
  -0.0050025297   -0.0001561386    0.0003044603
  -0.0050561997   -0.0001387286   -0.0002964797
   0.0050524803    0.0001460714    0.0002949503
  -0.0050344297    0.0001394614    0.0002833503
   0.0050399303   -0.0001271286   -0.0002913397
   0.0050440703   -0.0000730786    0.0002348403
  -0.0053016197    0.0002355414   -0.0003667997
   0.0282786303   -0.0018197486    0.0014674503
  -0.0018827397   -0.0004998686    0.0003523903
  -0.0013786597    0.0002585114    0.0002466503
   0.0013767803   -0.0002580386   -0.0002468897
  -0.0013873497   -0.0002581886   -0.0002445497
   0.0013895403    0.0002588114    0.0002445403
  -0.0033667997    0.0011687914   -0.0009732897
  -0.0035147997    0.0002668314   -0.0001652597
  -0.0102473097   -0.0037800286    0.0030813703
   0.0010140303    0.0016123514   -0.0013637697
  -0.0000013397    0.0007686314    0.0006997703
   0.0000017403   -0.0007699686   -0.0006969297
   0.0003156003   -0.0026246686    0.0018707303
  -0.0001892797    0.0021308314   -0.0014767097
   0.0000018703    0.0020938014    0.0014452703
  -0.0000030297   -0.0020984686   -0.0014584697
  -0.0006405597    0.0000124614   -0.0000520997
  -0.0097508097    0.0038978914   -0.0030230497
   0.0006580203   -0.0000391486   -0.0000725297
  -0.0006578497    0.0000390814    0.0000729303
   0.0006580303    0.0000393814    0.0000732303
  -0.0006575997   -0.0000394186   -0.0000729397
  -0.0008106897    0.0000580414   -0.0000044797
   0.0008478203   -0.0007660886    0.0005655903

13   
  0.0000000000000000   0.0200000000000000   0.0000000000000000
  -0.0000085500    0.0000017306    0.0000043306
   0.0000279900   -0.0000319094    0.0000434106
  -0.0000094500    0.0000055606   -0.0012653194
   0.0000086300    0.0000010606    0.0012551006
   0.0050977300    0.0002420706   -0.0004488794
  -0.0049932900   -0.0001502294    0.0003185806
  -0.0050560600   -0.0001398794   -0.0003001194
   0.0050549000    0.0001534106    0.0002953106
  -0.0050394900    0.0001366306    0.0002907006
   0.0050398200   -0.0001371894   -0.0002892494
   0.0050125000   -0.0000549594    0.0002539606
  -0.0048821300    0.0002059306   -0.0003670994
   0.0026031200   -0.0185720494    0.0106066306
  -0.0006353400    0.0013543506   -0.0009543394
  -0.0013781800    0.0002576506    0.0002470806
   0.0013777000   -0.0002587194   -0.0002465394
  -0.0013883300   -0.0002590094   -0.0002445094
   0.0013888000    0.0002582606    0.0002447306
   0.0022570100    0.0092591006   -0.0053983794
  -0.0008571300   -0.0017055294    0.0011507606
   0.0017413500    0.0039676206   -0.0011149994
  -0.0019574100    0.0013933406   -0.0014245894
  -0.0000012200    0.0007705206    0.0007000706
   0.0000016700   -0.0007694094   -0.0006963994
   0.0007057800   -0.0015612594    0.0009864906
  -0.0001570800    0.0018682606   -0.0015158894
  -0.0000016600    0.0020990306    0.0014482106
  -0.0000027000   -0.0021020094   -0.0014580494
  -0.0006381400    0.0000699506   -0.0000624594
  -0.0030975700    0.0035331306   -0.0016295794
   0.0006577300   -0.0000388694   -0.0000739494
  -0.0006581600    0.0000398406    0.0000727706
   0.0006579900    0.0000399306    0.0000733506
  -0.0006576400   -0.0000390794   -0.0000742294
  -0.0007951500   -0.0000773094   -0.0000732594
   0.0005819600    0.0002400306   -0.0003536494

13   
  0.0000000000000000  -0.0200000000000000   0.0000000000000000
   0.0000091297   -0.0000013997   -0.0000043203
  -0.0000279503    0.0000323003   -0.0000432803
   0.0000089697   -0.0000055097   -0.0012471203
  -0.0000080203   -0.0000009897    0.0012571797
   0.0049961097    0.0000469203   -0.0001403303
  -0.0051021703   -0.0001368597    0.0002711897
  -0.0050473903   -0.0001507097   -0.0002902403
   0.0050467197    0.0001367903    0.0002946097
  -0.0050547503    0.0001510503    0.0002982197
   0.0050521297   -0.0001494397   -0.0002990203
   0.0050923897   -0.0002344597    0.0003379697
  -0.0052184803    0.0000853803   -0.0002255703
   0.0001540397    0.0185323803   -0.0104747003
  -0.0021456903   -0.0008527697    0.0004696997
  -0.0013777503    0.0002589403    0.0002466297
   0.0013785097   -0.0002577697   -0.0002472103
  -0.0013880703   -0.0002571697   -0.0002443403
   0.0013877097    0.0002581503    0.0002442597
   0.0004953397   -0.0091575997    0.0053320597
  -0.0019030503    0.0012074003   -0.0006609203
  -0.0016590603   -0.0055165297    0.0024640097
   0.0019760197    0.0001325303    0.0000534197
  -0.0000008903    0.0007675103    0.0006953897
   0.0000003597   -0.0007685797   -0.0006991803
  -0.0007113503   -0.0026376097    0.0019064897
   0.0001777997    0.0023348103   -0.0013994303
  -0.0000173503    0.0021056303    0.0014548997
   0.0000232597   -0.0021026697   -0.0014449203
  -0.0006779203    0.0000089703   -0.0000842203
   0.0043295197   -0.0036616697    0.0017349197
   0.0006579897   -0.0000399097   -0.0000727103
  -0.0006572303    0.0000389603    0.0000739097
   0.0006580397    0.0000392503    0.0000735397
  -0.0006583203   -0.0000399797   -0.0000725803
  -0.0005188803    0.0000003503    0.0002218397
   0.0007302897   -0.0001656997    0.0002198597

13   
  0.0059483247596644   0.0147106552127530   0.0121743195195898
   0.0000093406    0.0000129000   -0.0000047997
  -0.0000035494    0.0000045300    0.0000176603
  -0.0000006094   -0.0000016000   -0.0012580697
  -0.0000035894   -0.0000002000    0.0012531003
   0.0050127406    0.0000611400   -0.0003344797
  -0.0050462994   -0.0001303100    0.0003131803
  -0.0050485294   -0.0001441800   -0.0002945197
   0.0050539606    0.0001490000    0.0002959403
  -0.0050470994    0.0001416100    0.0002949103
   0.0050459306   -0.0001475800   -0.0002931597
   0.0050443806   -0.0001255500    0.0003257903
  -0.0049325194    0.0001164600   -0.0003078897
  -0.0063665494   -0.0071359200   -0.0005443697
  -0.0010486894    0.0008560400   -0.0004772797
  -0.0013777194    0.0002578900    0.0002467503
   0.0013781306   -0.0002589100   -0.0002468397
  -0.0013883994   -0.0002588200   -0.0002444997
   0.0013880706    0.0002580800    0.0002445603
   0.0030159706    0.0035212800    0.0000797603
  -0.0006002094   -0.0009284600    0.0004053103
   0.0035804806    0.0025636900    0.0009827103
  -0.0007994694    0.0005281800   -0.0008672297
  -0.0000006894    0.0007709300    0.0006986503
   0.0000011706   -0.0007685300   -0.0006965997
   0.0000726506   -0.0018285300    0.0011832603
   0.0000259806    0.0018841000   -0.0016518797
  -0.0000119194    0.0021011100    0.0014510103
   0.0000069906   -0.0021035600   -0.0014537597
  -0.0006579994    0.0000770700   -0.0000498097
   0.0027619106    0.0004588400    0.0014392903
   0.0006577206   -0.0000391600   -0.0000740297
  -0.0006579794    0.0000396500    0.0000732003
   0.0006581706    0.0000396900    0.0000734903
  -0.0006578094   -0.0000392000   -0.0000742497
  -0.0006452394   -0.0001864800   -0.0000780597
   0.0005812706    0.0002548000   -0.0004270497

13   
 -0.0059483247596644  -0.0147106552127530  -0.0121743195195898
  -0.0000085100   -0.0000122103    0.0000044106
   0.0000033900   -0.0000041703   -0.0000175094
   0.0000001500    0.0000016397   -0.0012546594
   0.0000040300    0.0000002997    0.0012595906
   0.0050808700    0.0002255597   -0.0002537494
  -0.0050474400   -0.0001565003    0.0002763206
  -0.0050548700   -0.0001464203   -0.0002959094
   0.0050475900    0.0001412497    0.0002940406
  -0.0050464200    0.0001458197    0.0002938906
   0.0050460300   -0.0001394503   -0.0002952194
   0.0050596700   -0.0001632103    0.0002659206
  -0.0051662700    0.0001709397   -0.0002820394
   0.0090040500    0.0065967597    0.0010380506
  -0.0017287100   -0.0003499103   -0.0000109194
  -0.0013780200    0.0002589997    0.0002471206
   0.0013778900   -0.0002577203   -0.0002469194
  -0.0013878800   -0.0002575603   -0.0002444194
   0.0013882800    0.0002585197    0.0002445806
  -0.0002458800   -0.0029698203   -0.0005652494
  -0.0021500800    0.0004226697    0.0000794906
  -0.0035297900   -0.0041154103    0.0003550806
   0.0007988200    0.0010034397   -0.0005222894
  -0.0000014400    0.0007674297    0.0006971306
   0.0000008200   -0.0007697703   -0.0006991694
  -0.0000914400   -0.0023690903    0.0017177406
  -0.0000063600    0.0023173597   -0.0012621094
  -0.0000074300    0.0021035797    0.0014521306
   0.0000133800   -0.0021009203   -0.0014490494
  -0.0006577500    0.0000022997   -0.0000967994
  -0.0013807900   -0.0005375203   -0.0012470394
   0.0006579700   -0.0000396503   -0.0000726694
  -0.0006574800    0.0000392197    0.0000735506
   0.0006578500    0.0000395497    0.0000734606
  -0.0006582300   -0.0000399103   -0.0000726094
  -0.0006681800    0.0001081397    0.0002259806
   0.0007321800   -0.0001742303    0.0002898406

21   
  0.0059483247596644   0.0147106552127530   0.0121743195195898
  -0.0000370503   -0.0001424097    0.0000018003
   0.0000154297   -0.0000829297   -0.0000554797
  -0.0000165403    0.0000417803   -0.0012790897
   0.0000208197    0.0000111903    0.0012572803
   0.0054520397    0.0004602503   -0.0012328397
  -0.0050382803   -0.0001018497    0.0002659003
  -0.0050655503   -0.0001812797   -0.0002893797
   0.0050377297    0.0001461403    0.0002734103
  -0.0050155803    0.0001402403    0.0002553403
   0.0050461097   -0.0001536297   -0.0002841197
   0.0050421897   -0.0001340197    0.0002910703
  -0.0050928103   -0.0003836497   -0.0005416197
   0.0052892197    0.0026570303    0.0009307903
  -0.0019037403   -0.0003176597   -0.0001503697
  -0.0013763103    0.0002577603    0.0002455403
   0.0013790097   -0.0002594597   -0.0002470797
  -0.0013895903   -0.0002596897   -0.0002448397
   0.0013867697    0.0002578303    0.0002435603
   0.0012875097    0.0008497903   -0.0010774597
   0.0009259097    0.0016389703    0.0016927303
  -0.0079909103   -0.0076673797   -0.0004785797
   0.0005940597    0.0009490703   -0.0004738097
  -0.0000023903    0.0007686603    0.0006881103