# epsilon and Z* of atoms 1 3 7 11 15 19 23 27
   2.88535206   -0.00000000   -0.00000000   -0.00000000    2.79188467   -0.00000000   -0.00000000   -0.00000000    2.36555786 
   2.90090539    0.00000000   -0.24452965    0.00000000    2.53323047    0.00000000   -0.05725812   -0.00000000    2.43384353 
  -2.26869038    0.24057216   -0.50384876   -0.03113443   -1.30360022    0.03209703   -0.47417087    0.01938363   -0.78171339 
  -1.32733551   -0.65116897   -0.44296130   -0.37056936   -1.70272748   -0.37020973   -0.34590546   -0.60104102   -1.32405096 
  -1.22439459   -0.67980204   -0.16052859   -0.41299303   -1.61348897   -0.20085459   -0.01497811   -0.16111969   -0.72832946 
   2.51941531    0.00899849    0.82619526    0.12382562    1.59818865    0.49921485    0.72404900    0.67583834    0.77093318 
   0.57938898    0.72927708    0.12801573    0.93818248    0.45394874   -0.21112151    0.02836057   -0.02856336    0.39678814 
  -0.02084635    0.02181678   -0.06003967   -0.04386533    0.00775280    0.01580368   -0.04641250    0.01557564   -0.03845003 
   0.29104584    0.44628125    0.08871620    0.09271273    1.29236083    0.29689584    0.03767763    0.25554056    0.48873877 