  30  240
1 1
     9.571905203912069    -0.000000000000000     0.424002347789250
     0.000000000000000     6.670699724212798     0.000000000000000
     0.424002570759257    -0.000000000000000     5.762120876471914
1 2
    -0.114504034545595     0.369341176593232     0.034226111958088
     0.369341286733569    -0.285285530055505    -0.028315971638266
     0.034226107539598    -0.028315837312452     0.177927454329058
1 3
    -0.114504034545595    -0.369341176593232     0.034226111958088
    -0.369341286733569    -0.285285530055505     0.028315971638266
     0.034226107539598     0.028315837312452     0.177927454329058
1 4
    -0.412911057991263    -0.000000000000000    -0.004794768470285
     0.000000000000000    -0.039469103331157     0.000000000000000
    -0.004794856516345    -0.000000000000000     0.093770911635900
1 5
     0.061340895812058    -0.000000000000000     0.004256906447832
     0.000000000000000     0.066744354785883    -0.000000000000000
     0.004256853888571    -0.000000000000000    -0.347955329891908
1 6
    -0.002414962611629     0.041431354408293     0.002381061970780
     0.041431370901765    -0.028003192693227    -0.009867674740070
     0.002380930282158    -0.009867698833142    -0.154279930666888
1 7
    -0.002414962611629    -0.041431354408294     0.002381061970780
    -0.041431370901765    -0.028003192693228     0.009867674740070
     0.002380930282158     0.009867698833142    -0.154279930666888
1 8
    -0.050422419827236    -0.000000000000000     0.007152441364451
     0.000000000000000    -0.005534853090927    -0.000000000000000
     0.007152422816895    -0.000000000000000    -0.097254815378715
1 9
    -0.103415897917371     0.006271631869366    -0.007122195698785
    -0.006271631869366    -0.021356409411023    -0.019858871016030
     0.007122195698785    -0.019858871016030     0.000659103722630
1 10
    -0.043469674578937    -0.123223223554135    -0.202727581765850
    -0.132189552800082    -0.069953912563150    -0.115928575450842
    -0.125599268520596    -0.024177515231768    -0.022719212546961
1 11
    -0.043469674578937     0.132189552800082     0.125599268520596
     0.123223223554135    -0.069953912563150    -0.024177515231768
     0.202727581765850    -0.115928575450842    -0.022719212546961
1 12
     0.330338306996232    -0.009313303487355     0.046562433350052
     0.009313303487355     0.164250098733546     0.546854818706422
    -0.046562433350052     0.546854818706422    -0.700564934453074
1 13
    -0.103415897917371    -0.006271631869366    -0.007122195698785
     0.006271631869366    -0.021356409411023     0.019858871016030
     0.007122195698785     0.019858871016030     0.000659103722630
1 14
    -0.043469674578937    -0.132189552800082     0.125599268520596
    -0.123223223554135    -0.069953912563150     0.024177515231768
     0.202727581765850     0.115928575450842    -0.022719212546961
1 15
    -0.043469674578937     0.123223223554135    -0.202727581765850
     0.132189552800082    -0.069953912563150     0.115928575450842
    -0.125599268520596     0.024177515231768    -0.022719212546961
1 16
     0.330338306996232     0.009313303487355     0.046562433350052
    -0.009313303487355     0.164250098733546    -0.546854818706422
    -0.046562433350052    -0.546854818706422    -0.700564934453074
1 17
    -0.453019425128105    -0.361091483680071     0.060328401593778
    -0.063730738601715    -1.335389774865310     0.028371232454092
    -0.046161070916557    -0.115059218028344    -0.394458680140799
1 18
     0.122888034520058    -0.126105860344137     0.040896231687197
    -0.124958768543380     0.050343189269747    -0.014758659588099
    -0.033645458933426     0.000667537070324    -0.046095399721094
1 19
    -0.183383923757658     0.472962409514169    -0.181494178934806
     0.844502583523078     0.146870715352353     0.304138804031174
    -0.489916737774632    -0.030550463913143    -0.333693612962297
1 20
     0.324535169442919    -0.156146339541085     0.082537199905204
    -0.118527540010843     0.076717167021962    -0.052036423096991
    -0.049555173911804     0.003612815129101    -0.042242207419066
1 21
    -0.028566306655002     0.006886076625137    -0.009823799319314
     0.026522726791336    -0.010047679833166     0.000565641439559
     0.030614689261485    -0.006455705056450     0.096350892832539
1 22
     0.021337865498457    -0.012041668776608     0.003437075026458
    -0.019865881075832     0.007593626491940     0.000508209204829
     0.014388115478351    -0.001709045114142     0.040927389155012
1 23
    -0.027205602006772     0.013066459013654    -0.005581537309073
     0.027309541998520    -0.002865694766972     0.008226299482885
     0.068561033286827     0.000472995499330     0.068256717085748
1 24
     0.033063531418216    -0.006361785632670     0.006735488885231
    -0.022933296437173     0.006835646408866    -0.007126811133119
     0.030958080505599     0.001295781542878     0.035710384476865
1 25
     0.042154629674330    -0.054070879468793    -0.015042726596198
    -0.060518075294507     0.053262686662321     0.032768215699979
    -0.012853984352951     0.059376813045125     0.031020221722715
1 26
    -0.184149867151675     0.064946969762435     0.150271248802609
     0.026074502670029    -0.062842252262514     0.034646449989065
     0.131152729406028     0.019696464040019     0.052967409435767
1 27
     0.097086632667740    -0.023099645527945    -0.056033756987056
    -0.029290063844311     0.002443864323729     0.005688909254894
    -0.084543495559204    -0.001868112521388     0.025580541629907
1 28
    -0.000536207626676     0.040645725906872    -0.023906045170989
     0.117416756264177     0.010740206918064    -0.101252467832468
    -0.075199749450773    -0.073383281982054     0.049348557309248
1 29
     0.023907693458239    -0.043066862750959     0.007805194190133
    -0.080488480748272     0.042398952201829     0.008783144764158
    -0.016357458609395    -0.025998925251919    -0.011095326639668
1 30
     0.025391373009552     0.034990987327549    -0.140234862512226
     0.243800197813168    -0.025835425829210    -0.074887611454651
    -1.024580932142802    -0.167663421980369     0.455531276309959
1 31
     0.173592105720615    -0.021627405538797     0.037903123459725
    -0.056514397082202     0.001999483122679    -0.010516314173734
     0.052963872648477     0.003635144594552    -0.009207250217703
1 32
    -0.059309032293819     0.056744454491087    -0.000085737424449
     0.147839104352296     0.030004921728908     0.053361236934144
     0.099402516264583     0.079370619281308    -0.003771102903909
1 33
    -0.453019425128105     0.361091483680071     0.060328401593778
     0.063730738601715    -1.335389774865310    -0.028371232454092
    -0.046161070916557     0.115059218028344    -0.394458680140799
1 34
    -0.183383923757658    -0.472962409514169    -0.181494178934806
    -0.844502583523078     0.146870715352353    -0.304138804031174
    -0.489916737774632     0.030550463913143    -0.333693612962297
1 35
     0.122888034520058     0.126105860344137     0.040896231687197
     0.124958768543380     0.050343189269747     0.014758659588099
    -0.033645458933426    -0.000667537070324    -0.046095399721094
1 36
     0.324535169442919     0.156146339541085     0.082537199905204
     0.118527540010843     0.076717167021962     0.052036423096991
    -0.049555173911804    -0.003612815129101    -0.042242207419066
1 37
    -0.028566306655002    -0.006886076625137    -0.009823799319314
    -0.026522726791336    -0.010047679833166    -0.000565641439559
     0.030614689261485     0.006455705056450     0.096350892832539
1 38
    -0.027205602006772    -0.013066459013654    -0.005581537309073
    -0.027309541998520    -0.002865694766972    -0.008226299482885
     0.068561033286827    -0.000472995499330     0.068256717085748
1 39
     0.021337865498457     0.012041668776608     0.003437075026458
     0.019865881075832     0.007593626491940    -0.000508209204829
     0.014388115478351     0.001709045114142     0.040927389155012
1 40
     0.033063531418216     0.006361785632670     0.006735488885231
     0.022933296437173     0.006835646408866     0.007126811133119
     0.030958080505599    -0.001295781542878     0.035710384476865
1 41
     0.023907693458239     0.043066862750959     0.007805194190133
     0.080488480748272     0.042398952201829    -0.008783144764158
    -0.016357458609395     0.025998925251919    -0.011095326639668
1 42
     0.173592105720615     0.021627405538797     0.037903123459725
     0.056514397082202     0.001999483122679     0.010516314173734
     0.052963872648477    -0.003635144594552    -0.009207250217703
1 43
     0.025391373009552    -0.034990987327549    -0.140234862512226
    -0.243800197813168    -0.025835425829210     0.074887611454651
    -1.024580932142802     0.167663421980369     0.455531276309959
1 44
    -0.059309032293819    -0.056744454491087    -0.000085737424449
    -0.147839104352296     0.030004921728908    -0.053361236934144
     0.099402516264583    -0.079370619281308    -0.003771102903909
1 45
     0.042154629674330     0.054070879468793    -0.015042726596198
     0.060518075294507     0.053262686662321    -0.032768215699979
    -0.012853984352951    -0.059376813045125     0.031020221722715
1 46
     0.097086632667740     0.023099645527945    -0.056033756987056
     0.029290063844311     0.002443864323729    -0.005688909254894
    -0.084543495559204     0.001868112521388     0.025580541629907
1 47
    -0.184149867151675    -0.064946969762435     0.150271248802609
    -0.026074502670029    -0.062842252262514    -0.034646449989065
     0.131152729406028    -0.019696464040019     0.052967409435767
1 48
    -0.000536207626676    -0.040645725906872    -0.023906045170989
    -0.117416756264177     0.010740206918064     0.101252467832468
    -0.075199749450773     0.073383281982054     0.049348557309248
1 49
     0.077926379774646    -0.005071566820540     0.011371040534647
    -0.021192272828600     0.060954560084870     0.016592814255019
    -0.018325121682715    -0.020931829464894    -0.052115207375111
1 50
     0.503763310445151     0.688381659332681     0.395949404598211
     0.709321888846458     0.450497871057745     0.353337233745566
     0.046250603614319     0.055598248183827     0.017384115219343
1 51
     0.096627667743120    -0.177936127223294    -0.076027663511894
    -0.131164411369926    -0.018344170959091     0.011011430211234
    -0.057142681448647    -0.037196141828566    -0.126582607237162
1 52
    -0.411546738310378     0.047606658612593    -0.009524700221441
     0.200059118337593    -0.043732193664038     0.347027864449322
    -0.158630050536147    -0.207082083355902    -0.730167675472200
1 53
     0.016845112998540     0.003190386573801     0.001514777920651
    -0.004299073122578     0.008964746551440     0.000563437765637
     0.010472737626154     0.016625157429164     0.048220831912977
1 54
    -0.007346979772538     0.005939651976041    -0.028932758164431
     0.019511477007111     0.006241297918736    -0.012185829684941
     0.013435925876943     0.032240819792421     0.111669822276609
1 55
     0.015416296618779    -0.000550574765032     0.029588561730849
    -0.021566019212171    -0.007110362450562    -0.019226629913133
     0.029039469163231     0.036609000557945     0.081283477190506
1 56
    -0.025355750462550    -0.007891889159793    -0.010174091428767
     0.015829544404822     0.004924701860999     0.050418728105707
     0.051121294203206     0.094779052824883     0.167947670466455
1 57
    -0.141295083274500    -0.068771656151856     0.007774110163164
    -0.014323902025282    -0.108792155913186     0.042464702956624
     0.080979375626796     0.005026371102681     0.229711306047722
1 58
    -0.002785867497524    -0.065252659016402     0.006888376433290
    -0.035816223619679     0.014352983477585     0.001452775658182
    -0.019569782688456    -0.011394101921683     0.064933843088023
1 59
     0.028377366215993     0.084178960245459    -0.014963468534047
     0.084284849172552     0.077992891133165    -0.033956210262745
    -0.045091405674100    -0.081264624303359     0.090561272183699
1 60
     0.060435378712205     0.029645845631827    -0.017284304610899
    -0.004421156484012     0.011500077348212    -0.000963502640593
    -0.037975740203306    -0.036238077610893     0.054250720468095
1 61
    -0.270173186813523     0.070585993284371    -0.009737117974043
    -0.009957606677168    -0.301080397412996     0.111458815906931
    -0.115673708898290    -0.397587926429440    -0.864582017266878
1 62
    -0.006114918463945    -0.140624809777892     0.043429973632247
    -0.070206485415517     0.053041064184107     0.020516155854915
     0.001683703663769     0.017711301899968    -0.037318731297778
1 63
     0.017765600872476     0.127918841727116    -0.026690676516050
     0.094763067419875     0.081749972595428     0.003111644368908
     0.041179193190204     0.064334999226516    -0.111013090309098
1 64
     0.102746094228027     0.040016309542565    -0.020551616025254
    -0.011909797380562     0.017620320514885    -0.004272395299327
     0.024296639388068     0.028891406369668    -0.046954489921313
1 65
     0.077926379774646     0.005071566820540     0.011371040534647
     0.021192272828600     0.060954560084870    -0.016592814255019
    -0.018325121682715     0.020931829464894    -0.052115207375111
1 66
     0.096627667743120     0.177936127223294    -0.076027663511894
     0.131164411369926    -0.018344170959091    -0.011011430211234
    -0.057142681448647     0.037196141828566    -0.126582607237162
1 67
     0.503763310445151    -0.688381659332681     0.395949404598211
    -0.709321888846458     0.450497871057745    -0.353337233745566
     0.046250603614319    -0.055598248183827     0.017384115219343
1 68
    -0.411546738310378    -0.047606658612593    -0.009524700221441
    -0.200059118337593    -0.043732193664038    -0.347027864449322
    -0.158630050536147     0.207082083355902    -0.730167675472199
1 69
     0.016845112998540    -0.003190386573801     0.001514777920651
     0.004299073122578     0.008964746551440    -0.000563437765637
     0.010472737626154    -0.016625157429164     0.048220831912977
1 70
     0.015416296618779     0.000550574765032     0.029588561730849
     0.021566019212171    -0.007110362450562     0.019226629913133
     0.029039469163231    -0.036609000557945     0.081283477190506
1 71
    -0.007346979772538    -0.005939651976041    -0.028932758164431
    -0.019511477007111     0.006241297918736     0.012185829684941
     0.013435925876943    -0.032240819792421     0.111669822276609
1 72
    -0.025355750462550     0.007891889159793    -0.010174091428767
    -0.015829544404822     0.004924701860999    -0.050418728105707
     0.051121294203206    -0.094779052824883     0.167947670466455
1 73
    -0.270173186813523    -0.070585993284371    -0.009737117974043
     0.009957606677168    -0.301080397412996    -0.111458815906931
    -0.115673708898290     0.397587926429440    -0.864582017266878
1 74
     0.017765600872476    -0.127918841727116    -0.026690676516050
    -0.094763067419875     0.081749972595428    -0.003111644368908
     0.041179193190204    -0.064334999226516    -0.111013090309098
1 75
    -0.006114918463945     0.140624809777892     0.043429973632247
     0.070206485415517     0.053041064184107    -0.020516155854915
     0.001683703663769    -0.017711301899968    -0.037318731297778
1 76
     0.102746094228027    -0.040016309542565    -0.020551616025254
     0.011909797380562     0.017620320514885     0.004272395299327
     0.024296639388068    -0.028891406369668    -0.046954489921313
1 77
    -0.141295083274500     0.068771656151856     0.007774110163164
     0.014323902025282    -0.108792155913186    -0.042464702956624
     0.080979375626796    -0.005026371102681     0.229711306047722
1 78
     0.028377366215993    -0.084178960245459    -0.014963468534047
    -0.084284849172552     0.077992891133165     0.033956210262745
    -0.045091405674100     0.081264624303359     0.090561272183699
1 79
    -0.002785867497524     0.065252659016402     0.006888376433290
     0.035816223619679     0.014352983477585    -0.001452775658182
    -0.019569782688456     0.011394101921683     0.064933843088023
1 80
     0.060435378712205    -0.029645845631827    -0.017284304610899
     0.004421156484012     0.011500077348212     0.000963502640593
    -0.037975740203306     0.036238077610893     0.054250720468095
1 81
    -0.071198996110794    -0.366513047334131    -0.106172030520469
    -0.029604635292094     0.285462374699845     0.055707456624254
    -0.016142305473017    -0.042109692071514    -0.101424912029147
1 82
    -2.086175228081633     0.345109516863668    -0.234352089639798
     0.341304055883652    -0.750509207199152    -0.077503070972868
    -0.369100676762468    -0.029646339183352    -0.300012111659394
1 83
     0.272148131051587     0.188642560950813    -0.002770314879446
    -0.067390803477035    -0.040966924460423     0.026213580491579
    -0.005801856762200    -0.007700937974872    -0.074434300385988
1 84
     0.002959412557979     0.170017530360389     0.063964166645554
     0.179137035548468     0.356866123877476     0.049509931065004
     0.027486781958206    -0.104246351086911    -0.085142133698294
1 85
    -0.001736312661616    -0.014330551908554    -0.003570647187790
    -0.004795206608449     0.014658798795463    -0.006513543903554
     0.002420212741030     0.009273532088974     0.063489182016117
1 86
    -0.009919559835893    -0.006022239142629    -0.011759290050500
    -0.000286172857034    -0.025615728943762    -0.000284409870764
     0.000924380769494     0.018720243681313     0.076360341760479
1 87
     0.013923446721335     0.007735237435080     0.008291665690929
    -0.006423737808816    -0.005658851439384     0.000589452408805
     0.000511110138305     0.007644174602678     0.043159408886376
1 88
    -0.000104862963874     0.012336536600765     0.001175547120307
     0.011721295977720     0.017678158707638     0.005784020395921
    -0.000444523188462     0.015385804041937     0.039796331955349
1 89
    -0.075284776045728    -0.003864483530103     0.020410370462018
     0.039454053982628     0.057353809571171     0.036620742390073
     0.128560486533598     0.136128839757098     0.037016971351140
1 90
     0.030021880651935    -0.013535930687146     0.025887885805575
    -0.027901707585568    -0.018859298548067    -0.002451902712399
     0.027174301684597     0.023027627624110     0.009892125509661
1 91
     0.017227919112965     0.079706271289977    -0.077345791800749
     0.038106900134170    -0.088642757616389    -0.030014764491628
    -0.129225024639291    -0.222793435040037     0.129017862143988
1 92
     0.032754030007668    -0.018599913333240    -0.003600540736571
    -0.011240861316390     0.046115610292396    -0.017697239589143
    -0.031054235937028    -0.029149576525623     0.019285615681554
1 93
    -0.051320478577227     0.080831178714715    -0.027094524040065
     0.089091509893194     0.102331630958017    -0.093809879422302
    -0.103340139165942    -0.332608892436956     0.093480337626323
1 94
     0.041450033385534    -0.017192843152331    -0.052209886574626
    -0.042786833903537    -0.025472694085088     0.014228544460201
    -0.042005680838958    -0.024435260683099     0.001608183070111
1 95
     0.035228548983950     0.106070698050604     0.169109539073260
     0.068429606308308    -0.065037045375409     0.067574976890515
     0.174570381955227     0.144743391791811     0.044342545464124
1 96
     0.041062310348296    -0.029082191508905     0.009748519712962
    -0.019566391195880     0.055647906626293     0.025274246169082
     0.019122451977620     0.033301740949248    -0.011474253942938
1 97
    -0.071198996110794     0.366513047334131    -0.106172030520470
     0.029604635292094     0.285462374699845    -0.055707456624254
    -0.016142305473017     0.042109692071514    -0.101424912029147
1 98
     0.272148131051587    -0.188642560950813    -0.002770314879446
     0.067390803477035    -0.040966924460423    -0.026213580491579
    -0.005801856762200     0.007700937974872    -0.074434300385988
1 99
    -2.086175228081633    -0.345109516863668    -0.234352089639798
    -0.341304055883652    -0.750509207199152     0.077503070972868
    -0.369100676762468     0.029646339183352    -0.300012111659394
1 100
     0.002959412557979    -0.170017530360389     0.063964166645554
    -0.179137035548468     0.356866123877476    -0.049509931065004
     0.027486781958206     0.104246351086911    -0.085142133698294
1 101
    -0.001736312661616     0.014330551908554    -0.003570647187790
     0.004795206608449     0.014658798795463     0.006513543903554
     0.002420212741030    -0.009273532088974     0.063489182016117
1 102
     0.013923446721335    -0.007735237435080     0.008291665690929
     0.006423737808816    -0.005658851439384    -0.000589452408805
     0.000511110138305    -0.007644174602678     0.043159408886376
1 103
    -0.009919559835893     0.006022239142629    -0.011759290050500
     0.000286172857034    -0.025615728943762     0.000284409870764
     0.000924380769494    -0.018720243681313     0.076360341760479
1 104
    -0.000104862963874    -0.012336536600765     0.001175547120307
    -0.011721295977720     0.017678158707638    -0.005784020395921
    -0.000444523188462    -0.015385804041937     0.039796331955349
1 105
    -0.051320478577227    -0.080831178714715    -0.027094524040065
    -0.089091509893194     0.102331630958017     0.093809879422302
    -0.103340139165942     0.332608892436956     0.093480337626323
1 106
     0.035228548983950    -0.106070698050604     0.169109539073260
    -0.068429606308308    -0.065037045375409    -0.067574976890515
     0.174570381955227    -0.144743391791811     0.044342545464124
1 107
     0.041450033385534     0.017192843152331    -0.052209886574626
     0.042786833903537    -0.025472694085088    -0.014228544460201
    -0.042005680838958     0.024435260683099     0.001608183070111
1 108
     0.041062310348296     0.029082191508905     0.009748519712962
     0.019566391195880     0.055647906626293    -0.025274246169082
     0.019122451977620    -0.033301740949248    -0.011474253942938
1 109
    -0.075284776045728     0.003864483530103     0.020410370462018
    -0.039454053982628     0.057353809571171    -0.036620742390073
     0.128560486533598    -0.136128839757098     0.037016971351140
1 110
     0.017227919112965    -0.079706271289977    -0.077345791800749
    -0.038106900134170    -0.088642757616389     0.030014764491628
    -0.129225024639291     0.222793435040037     0.129017862143988
1 111
     0.030021880651935     0.013535930687146     0.025887885805575
     0.027901707585568    -0.018859298548067     0.002451902712399
     0.027174301684597    -0.023027627624110     0.009892125509661
1 112
     0.032754030007668     0.018599913333240    -0.003600540736571
     0.011240861316390     0.046115610292396     0.017697239589143
    -0.031054235937028     0.029149576525623     0.019285615681554
1 113
    -0.169880017727289     0.001774861158243    -0.038966244373716
     0.113034969051243    -0.101421684146471     0.005212219540592
     0.037286136783904     0.014029091188396     0.029438082095619
1 114
    -1.364835900435279    -0.749444068690728    -0.658612573744830
    -1.818007529350396    -0.155341877499237    -0.634692185002671
    -0.296610363541151    -0.127727924995619    -0.033764396605365
1 115
    -0.281357770933581     0.331201266542437    -0.045606230404123
     0.202001571972713     0.075636947585475     0.025954800574699
     0.085149446487284     0.075751736939399     0.047660588219314
1 116
     0.257370057347968    -0.481680727643447     0.074666319537851
    -1.107688938793634    -1.295233103147511    -0.489989484283378
     0.679247647525445     0.654608296574064     0.607299385295514
1 117
    -0.028314795052109     0.001495611210372    -0.006266082689017
     0.018972131754268    -0.017962261105625     0.000577902172717
    -0.022816742520588    -0.018851531368786    -0.026295629625492
1 118
     0.028408711163995    -0.001677233526001     0.019935337322098
    -0.034660548911213     0.011883089841574     0.001886416748484
    -0.052855910827176    -0.050446920682086    -0.088516101455276
1 119
    -0.035688205941936     0.000882918745781    -0.012500343112701
     0.030794088951946     0.010729654304321     0.010249925033512
    -0.044954974854760    -0.044703457676579    -0.042414593271968
1 120
     0.037159901713174     0.001072673119430     0.007436517845169
    -0.029454445963313    -0.016319529980607    -0.015951372648408
    -0.099240933973704    -0.093976452134768    -0.085633252870153
1 121
     0.300237902027809     0.008936605875327    -0.105645574228371
     0.000727540085808     0.096379700983815    -0.060750037078642
    -0.144097939339139    -0.009504394206965    -0.109656672779188
1 122
    -0.034833031994429     0.089633523336865    -0.003289379227631
     0.078554811418602    -0.029471647220597    -0.017412714659624
     0.038339539728718     0.042311432555542    -0.019683227419973
1 123
    -0.021782032235508    -0.079096431312003     0.032734312227806
    -0.174695335566999    -0.033661896947247     0.074528043880668
     0.075303914529503     0.063065511995319    -0.067755851185291
1 124
    -0.125314520222649    -0.004082572597542     0.042726012347119
     0.025380518417295    -0.023721337245204    -0.003031661126895
     0.078134755070219     0.026148534378122    -0.042184643321248
1 125
    -0.155243133416615    -0.356732644470831     0.412339228099556
    -0.366630231994349    -0.188691749693773     0.394551202343198
     1.405027865051001     1.244191917506436    -1.197414553628817
1 126
    -0.001687311773775     0.126829770589975    -0.048167698229035
     0.095834276873513    -0.027255207933489    -0.011950159295644
     0.004904134609791    -0.044119418117090     0.012938261983203
1 127
     0.033146698118573    -0.150977228853523     0.012898603930222
    -0.181241056011229    -0.025218777529934     0.013904641999138
    -0.101588937235307    -0.069342559072062     0.070600487762321
1 128
    -0.195762327742873     0.002781455291867     0.044115534752644
     0.053369756317507    -0.039479799876645    -0.001588006769977
    -0.051701974137660    -0.026217801585140     0.032003660060932
1 129
    -0.169880017727289    -0.001774861158243    -0.038966244373716
    -0.113034969051243    -0.101421684146471    -0.005212219540592
     0.037286136783904    -0.014029091188396     0.029438082095619
1 130
    -0.281357770933581    -0.331201266542437    -0.045606230404123
    -0.202001571972713     0.075636947585475    -0.025954800574699
     0.085149446487284    -0.075751736939399     0.047660588219314
1 131
    -1.364835900435279     0.749444068690728    -0.658612573744830
     1.818007529350396    -0.155341877499237     0.634692185002671
    -0.296610363541151     0.127727924995619    -0.033764396605365
1 132
     0.257370057347969     0.481680727643447     0.074666319537851
     1.107688938793634    -1.295233103147511     0.489989484283378
     0.679247647525445    -0.654608296574064     0.607299385295514
1 133
    -0.028314795052109    -0.001495611210372    -0.006266082689017
    -0.018972131754268    -0.017962261105625    -0.000577902172717
    -0.022816742520588     0.018851531368786    -0.026295629625492
1 134
    -0.035688205941936    -0.000882918745781    -0.012500343112701
    -0.030794088951946     0.010729654304321    -0.010249925033512
    -0.044954974854760     0.044703457676579    -0.042414593271968
1 135
     0.028408711163995     0.001677233526001     0.019935337322098
     0.034660548911213     0.011883089841574    -0.001886416748484
    -0.052855910827176     0.050446920682086    -0.088516101455276
1 136
     0.037159901713174    -0.001072673119430     0.007436517845169
     0.029454445963313    -0.016319529980607     0.015951372648408
    -0.099240933973704     0.093976452134768    -0.085633252870153
1 137
    -0.155243133416615     0.356732644470831     0.412339228099556
     0.366630231994349    -0.188691749693773    -0.394551202343198
     1.405027865051001    -1.244191917506436    -1.197414553628817
1 138
     0.033146698118573     0.150977228853523     0.012898603930222
     0.181241056011229    -0.025218777529934    -0.013904641999138
    -0.101588937235306     0.069342559072062     0.070600487762321
1 139
    -0.001687311773775    -0.126829770589975    -0.048167698229035
    -0.095834276873513    -0.027255207933489     0.011950159295644
     0.004904134609791     0.044119418117090     0.012938261983203
1 140
    -0.195762327742873    -0.002781455291867     0.044115534752644
    -0.053369756317507    -0.039479799876645     0.001588006769977
    -0.051701974137660     0.026217801585140     0.032003660060932
1 141
     0.300237902027809    -0.008936605875327    -0.105645574228371
    -0.000727540085808     0.096379700983815     0.060750037078642
    -0.144097939339139     0.009504394206965    -0.109656672779188
1 142
    -0.021782032235508     0.079096431312003     0.032734312227806
     0.174695335566999    -0.033661896947247    -0.074528043880668
     0.075303914529503    -0.063065511995319    -0.067755851185291
1 143
    -0.034833031994429    -0.089633523336865    -0.003289379227631
    -0.078554811418602    -0.029471647220597     0.017412714659624
     0.038339539728718    -0.042311432555542    -0.019683227419973
1 144
    -0.125314520222649     0.004082572597542     0.042726012347119
    -0.025380518417295    -0.023721337245204     0.003031661126895
     0.078134755070219    -0.026148534378122    -0.042184643321248
1 145
     0.137642983816717     0.107510491386086     0.029381861542234
    -0.137877069959244    -0.061427101065605     0.002227763064012
     0.010436899937229    -0.003921902037938     0.037388588847117
1 146
    -0.955628540243688    -0.731723120378701    -0.262263292638518