# epsilon and Z* of atoms 1 3 5 7 9 11 13 15 17 19 21 23 25 27 29 31
   2.41286374   -0.00000000    0.02143566   -0.00000000    2.15491243   -0.00000000    0.02143566   -0.00000000    2.51110638 
  -1.56796901    0.06019076   -0.65003746    0.31257024   -0.45271135   -0.00719014   -0.55870938   -0.26003330   -1.45951189 
  -1.14247844   -0.39390254    0.47970450   -0.27814896   -0.75243307    0.42269281    0.17393148    0.40762237   -1.48511399 
  -1.26603736    0.10874866    0.39335592    0.30614302   -0.92516976   -0.14738772    0.38966312    0.00067667   -0.94268631 
  -0.83719579   -0.18598558    0.02450018   -0.32423677   -1.37768284    0.16392696    0.00262285    0.17219936   -0.73213183 
  -2.14732252    0.66015671   -0.12704368    0.70797083   -1.14084647    0.14787627    0.23091239   -0.02287174   -0.98469690 
  -1.34288576    0.29494321    0.35899046    0.36384258   -0.63839915   -0.22507377    0.30427674    0.13213900   -2.11136734 
   2.01866939   -0.44098960    0.11272190   -0.59591794    0.63269959    0.29457876    0.29218946    0.53110450    1.72986869 
   0.59738204   -0.44063395   -0.36318471   -0.40688751    0.46966351    0.18361579   -0.44761103    0.02304515    0.28786229 
   0.50319489    0.40850786   -0.18841837    0.46901507    0.64450542   -0.04343289   -0.02218106   -0.11149888   -0.11568455 
   2.13581316    0.76821023   -0.13806196    0.85505961    0.51908869   -0.21282375   -0.44243566    0.04928443    1.85476388 
   1.22260863    0.06857039   -0.12722588   -0.02724793    1.07693176   -0.03289979   -0.16171186    0.03015628    1.11895344 
   0.03498534   -0.05642609    0.02741559   -0.01329041    0.06771546   -0.01156435    0.07913317   -0.00201633    0.05842608 
  -0.03277896    0.04235952    0.05927834   -0.03469676    0.03012849   -0.01175144    0.03771125   -0.05212866    0.09011710 
   0.49006200    0.17299794    0.47834651    0.07940099    0.37295439    0.15371000    0.43746280    0.39739664    1.67333779 
   1.05362031    0.25988130   -0.42053057    0.15177351    0.36530701   -0.13747971   -0.36106959   -0.20974034    0.57996376 
   0.27982343   -0.19705839    0.08004718   -0.17060790    1.10949645   -0.23862254    0.04577386   -0.20506134    0.43775817 