  32   32
1 1
    43.397170673757515    -6.733796012477654    10.640702144354405
    -6.733796067476066    11.659375361539370    11.406026750964646
    10.640702779497516    11.406026738702444    37.039424862267118
1 2
     0.047334577109386     0.092365336573617    -0.007114328019634
    -0.092365308170369    -0.051842628683802     0.004685089370684
    -0.007114267537063    -0.004685067883813     0.021653515321964
1 3
     0.079038600587896     0.083808550745123    -0.044063638960441
    -0.093368829315510    -0.198675050161252     0.065891848697457
    -0.007494540149780    -0.046320786938600     0.074440187873393
1 4
    -8.232197444191655     4.263649637001500     2.898719562754906
     4.142675356080203     1.081771735743902    -0.741876361048273
     2.444268149346121    -0.546245989620309     3.125826308385344
1 5
     0.286470783816199    -0.120012377106133    -0.069327612112630
    -0.274117551842645     0.108104451232614    -0.088063501031806
    -0.221497840607147     0.109083101088909    -0.488451374045869
1 6
     0.046357604611723     0.196625561570343     0.068316506161018
    -0.040429562253697    -0.131493568824936    -0.000621412719751
    -0.007226406676342     0.009128693503376     0.021533283714175
1 7
     0.079934219937022     0.063288075049831     0.009406701609299
     0.091849816692911    -0.046568179993886     0.086350468178629
     0.020524349370916     0.189115247766566    -0.219609801147118
1 8
     0.024934834852754     0.012824176201533    -0.029318989408309
    -0.004832294984116    -0.026949657518118     0.075500556010751
     0.021368976072775     0.078682744762391    -0.058122992478413
1 9
    -0.044429734780334     0.026274094587797    -0.013905614871786
     0.066278652812063    -0.080172685699637     0.009039612267330
     0.005731568170271    -0.007424829527143    -0.063422598408428
1 10
     0.496711420814197     0.009163943172570     0.042452649358025
     0.224505638145579     0.222259926264972    -0.035478130931311
     0.831579737019933     0.265146915953266    -0.307911092240984
1 11
    -0.018251073760432    -0.002320110372562    -0.038493933867847
     0.030124528018284    -0.028540701724872     0.005090774418361
     0.023768653919197    -0.054848549075536    -0.108175247373914
1 12
     0.370045387937085    -0.739106554617803    -2.733237028165536
    -0.007577937272354     0.342226365131580    -1.494441002124396
    -0.390899487389812    -1.255690273910880    -4.621336597699180
1 13
   -28.707259756041537     4.477562523401143    -5.705054159186682
     4.326925031709965    -7.676310054043302    -1.278470258188303
    -5.679521879772333    -1.277093023352530   -12.853667074789593
1 14
    -0.141774858960116    -0.128619567580949     0.060726694047404
     0.158063094104492     0.134699018740597    -0.126527363047187
     0.020727539613437     0.008754766157470    -0.078273022477305
1 15
    -2.551094954163082     0.616769112918973    -1.152873146404739
    -0.457067168967127     1.035162262644811    -0.652066854978718
    -3.736623722394301     0.086353255483352    -0.744974917663037
1 16
    -0.117724207027119    -0.111961341324122     0.030146991008597
     0.029611222852006     0.091789193630163    -0.009099341403952
    -0.007702181735233    -0.006740543010510    -0.024211834706853
1 17
    -0.050085957877343    -0.364164801868409    -0.371658149583510
    -0.058254591279106    -0.295165055915564    -0.263800176358128
     0.015914763147709    -0.250765220731690    -0.523651692388474
1 18
    -0.060531979709730    -0.004229078790300     0.031647310054037
     0.051532888221580     0.034732290847502    -0.019893023846254
    -0.012210535562515    -0.028604379131850     0.025881028807481
1 19
    -1.117063729284122    -0.142449181190353     0.709988654422788
    -0.666122200327197    -0.113630074810927     0.321871013502907
    -1.913882854588407    -0.395220931770686     1.465038976827553
1 20
     0.045206253680120    -0.001410549778735     0.062893530574097
    -0.099281314768580     0.026712201014706    -0.024809866033613
    -0.019761010033563     0.028468772255778     0.153409571595369
1 21
    -0.025089352453324     0.008820635676017    -0.028192459345081
     0.012214878721892     0.047075047746099     0.048581364126010
    -0.025150714217260     0.126082970988509     0.045269255951782
1 22
     0.258433175083977    -0.150028954280620    -0.704702662087695
     0.028896906729315     0.047653099062475     0.209106448749732
     0.195245124863124     0.041477654166165    -0.100905024269430
1 23
     0.054870000396670    -0.062268307374280    -0.239752113389520
    -0.030412193339871    -0.072391405457068     0.017073765126011
    -0.126867799640388    -0.047412918973208    -0.475204372337720
1 24
    -0.014435505067803     0.011168299168523    -0.003365299902810
     0.010142001717024     0.025232740587878     0.020264850844800
    -0.011629988759061     0.016976236442628    -0.014774658944979
1 25
     0.054153533393271     0.008892440750490    -0.005309025316202
    -0.016359507995498     0.032546445811093    -0.053987728478539
    -0.041120501497552    -0.047829222329975    -0.072969019804151
1 26
     0.031478920588414    -0.053432175415389     0.027184281485313
    -0.052293881292172     0.032056739416976    -0.024588096450700
     0.027879642948791    -0.041662557057976    -0.001175897966488
1 27
    -4.331989447688175    -1.205258560054046    -3.424998873656264
    -0.494805627819143    -6.217511758852710    -7.452769586899565
    -1.809969381194783    -8.120788456645936   -21.701237692050018
1 28
     0.026546691013993    -0.020350851704266     0.010458745962214
    -0.006422416612353     0.036944185306424     0.005608245174278
    -0.000604662178993     0.011632296227830    -0.014549369442835
1 29
    -0.050145018541541    -0.061488250367257    -0.029979977568078
    -0.060258222420212    -0.074960951082009     0.081983161059493
    -0.165063850952094    -0.166236603901948     0.331806296403942
1 30
     0.058580495177139    -0.007046157041844    -0.019472098795934
    -0.023023075876000     0.031585337442234     0.017226752314663
    -0.003280938730291     0.018738397676591     0.026096432537620
1 31
     0.039446961713663    -0.014176155870763     0.032723767720149
    -0.001409367266848     0.078234143349668    -0.014254967047844
     0.018854505344564    -0.030223197040370     0.039897950917517
1 32
    -0.068037175280118     0.040630985699395     0.009214029069316
     0.030167357878242    -0.092166598082638    -0.094833836462856
    -0.064150987841035    -0.070202575254411     0.051978769813883
2 1
     0.047334577109386    -0.092365336573617    -0.007114328019634
     0.092365308170369    -0.051842628683802    -0.004685089370684
    -0.007114267537063     0.004685067883813     0.021653515321964
2 2
    43.397170673757515     6.733796012477654    10.640702144354405
     6.733796067476066    11.659375361539370   -11.406026750964646
    10.640702779497516   -11.406026738702444    37.039424862267118
2 3
    -8.232197444191655    -4.263649637001500     2.898719562754906
    -4.142675356080203     1.081771735743902     0.741876361048273
     2.444268149346121     0.546245989620309     3.125826308385344
2 4
     0.079038600587896    -0.083808550745123    -0.044063638960441
     0.093368829315510    -0.198675050161252    -0.065891848697457
    -0.007494540149780     0.046320786938600     0.074440187873393
2 5
     0.046357604611723    -0.196625561570343     0.068316506161018
     0.040429562253697    -0.131493568824936     0.000621412719751
    -0.007226406676342    -0.009128693503376     0.021533283714175
2 6
     0.286470783816199     0.120012377106133    -0.069327612112630
     0.274117551842645     0.108104451232614     0.088063501031806
    -0.221497840607147    -0.109083101088909    -0.488451374045869
2 7
     0.024934834852754    -0.012824176201533    -0.029318989408309
     0.004832294984116    -0.026949657518118    -0.075500556010751
     0.021368976072775    -0.078682744762391    -0.058122992478413
2 8
     0.079934219937022    -0.063288075049831     0.009406701609299
    -0.091849816692911    -0.046568179993886    -0.086350468178629
     0.020524349370916    -0.189115247766566    -0.219609801147118
2 9
     0.496711420814197    -0.009163943172570     0.042452649358025
    -0.224505638145579     0.222259926264972     0.035478130931311
     0.831579737019933    -0.265146915953266    -0.307911092240984
2 10
    -0.044429734780334    -0.026274094587797    -0.013905614871786
    -0.066278652812063    -0.080172685699637    -0.009039612267330
     0.005731568170271     0.007424829527143    -0.063422598408428
2 11
     0.370045387937085     0.739106554617803    -2.733237028165536
     0.007577937272354     0.342226365131580     1.494441002124396
    -0.390899487389812     1.255690273910880    -4.621336597699180
2 12
    -0.018251073760432     0.002320110372562    -0.038493933867847
    -0.030124528018284    -0.028540701724872    -0.005090774418361
     0.023768653919197     0.054848549075536    -0.108175247373914
2 13
    -0.141774858960116     0.128619567580949     0.060726694047404
    -0.158063094104492     0.134699018740597     0.126527363047187
     0.020727539613437    -0.008754766157470    -0.078273022477305
2 14
   -28.707259756041537    -4.477562523401143    -5.705054159186682
    -4.326925031709965    -7.676310054043302     1.278470258188303
    -5.679521879772333     1.277093023352530   -12.853667074789593
2 15
    -0.117724207027119     0.111961341324122     0.030146991008597
    -0.029611222852006     0.091789193630163     0.009099341403952
    -0.007702181735233     0.006740543010510    -0.024211834706853
2 16
    -2.551094954163082    -0.616769112918973    -1.152873146404739
     0.457067168967127     1.035162262644811     0.652066854978718
    -3.736623722394301    -0.086353255483352    -0.744974917663037
2 17
    -0.060531979709730     0.004229078790300     0.031647310054037
    -0.051532888221580     0.034732290847502     0.019893023846254
    -0.012210535562515     0.028604379131850     0.025881028807481
2 18
    -0.050085957877343     0.364164801868409    -0.371658149583510
     0.058254591279106    -0.295165055915564     0.263800176358128
     0.015914763147709     0.250765220731690    -0.523651692388474
2 19
     0.045206253680120     0.001410549778735     0.062893530574097
     0.099281314768580     0.026712201014706     0.024809866033613
    -0.019761010033563    -0.028468772255778     0.153409571595369
2 20
    -1.117063729284122     0.142449181190353     0.709988654422788
     0.666122200327197    -0.113630074810927    -0.321871013502907
    -1.913882854588407     0.395220931770686     1.465038976827553
2 21
     0.258433175083977     0.150028954280620    -0.704702662087695
    -0.028896906729315     0.047653099062475    -0.209106448749732
     0.195245124863124    -0.041477654166165    -0.100905024269430
2 22
    -0.025089352453324    -0.008820635676017    -0.028192459345081
    -0.012214878721892     0.047075047746099    -0.048581364126010
    -0.025150714217260    -0.126082970988509     0.045269255951782
2 23
    -0.014435505067803    -0.011168299168523    -0.003365299902810
    -0.010142001717024     0.025232740587878    -0.020264850844800
    -0.011629988759061    -0.016976236442628    -0.014774658944979
2 24
     0.054870000396670     0.062268307374280    -0.239752113389520
     0.030412193339871    -0.072391405457068    -0.017073765126011
    -0.126867799640388     0.047412918973208    -0.475204372337720
2 25
     0.031478920588414     0.053432175415389     0.027184281485313
     0.052293881292172     0.032056739416976     0.024588096450700
     0.027879642948791     0.041662557057976    -0.001175897966488
2 26
     0.054153533393271    -0.008892440750490    -0.005309025316202
     0.016359507995498     0.032546445811093     0.053987728478539
    -0.041120501497552     0.047829222329975    -0.072969019804151
2 27
     0.026546691013993     0.020350851704266     0.010458745962214
     0.006422416612353     0.036944185306424    -0.005608245174278
    -0.000604662178993    -0.011632296227830    -0.014549369442835
2 28
    -4.331989447688175     1.205258560054046    -3.424998873656264
     0.494805627819143    -6.217511758852710     7.452769586899565
    -1.809969381194783     8.120788456645936   -21.701237692050018
2 29
     0.058580495177139     0.007046157041844    -0.019472098795934
     0.023023075876000     0.031585337442234    -0.017226752314663
    -0.003280938730291    -0.018738397676591     0.026096432537620
2 30
    -0.050145018541541     0.061488250367257    -0.029979977568078
     0.060258222420212    -0.074960951082009    -0.081983161059493
    -0.165063850952094     0.166236603901948     0.331806296403942
2 31
    -0.068037175280118    -0.040630985699395     0.009214029069316
    -0.030167357878242    -0.092166598082638     0.094833836462856
    -0.064150987841035     0.070202575254411     0.051978769813883
2 32
     0.039446961713663     0.014176155870763     0.032723767720149
     0.001409367266848     0.078234143349668     0.014254967047844
     0.018854505344564     0.030223197040370     0.039897950917517
3 1
     0.079038404148526    -0.093368625580673    -0.007494851088212
     0.083808939460925    -0.198674970083327    -0.046320846042787
    -0.044063746086580     0.065891863508193     0.074440356365914
3 2
    -8.232197283685387    -4.142675586841422     2.444268764084015
    -4.263649528650200     1.081771609873873     0.546246338603916
     2.898719547246444     0.741876314177928     3.125826401964900
3 3
    33.422748621523972    19.262131038421426   -24.223889718494213
    19.262131030407488    17.398335585116488   -19.862827328746747
   -24.223889105474484   -19.862827373138103    34.999509586433611
3 4
     0.086310912041373    -0.110253733669166    -0.078517331804559
     0.110253733716591    -0.185595309438832    -0.168705384697707
    -0.078517334389302     0.168705386206704     0.180952289750834
3 5
     0.099580592997927    -0.190714762527385     0.082143582020019
    -0.013244749590854    -0.554333731934256     0.338672246502886
    -0.011147390416629     0.442396100396457    -0.171216716762071
3 6
     0.139519061648364    -0.036823407998947     0.110221503054816
    -0.174751082349664    -0.177246426546568     0.643029033937493
     0.437710260606424     0.678087855841643    -1.608725009604873
3 7
     0.045075963570325     0.034390267073770     0.024646390357783
    -0.079310300307787    -0.232084041663138    -0.010083405824823
    -0.032893796901662    -0.075855407611814    -0.124486523815254
3 8
     0.039720532431162     0.065261679899579     0.025543287393477
    -0.112201607477551     0.234440547816202    -0.098339359012094
     0.056045529458110    -0.218569224423700    -0.243712671180876
3 9
     0.106983739316689    -0.003272936127622     0.038359591536413
    -0.059126652778167     0.078149635445871     0.035854360103428
    -0.382145971435870    -0.274214372190287    -1.071161854851813
3 10
    -0.033404638903049    -0.022429454694554     0.021577288751414
    -0.077479362496427    -0.045927818436394     0.043837645470284
     0.040935767400057     0.015415971288819    -0.111842775504149
3 11
    -0.553746224252335     0.085013362506792    -0.336639235417608
    -0.174544661394768     0.263852327249574    -0.096449432190867
     0.359917235117140    -0.126840182889514    -0.310960547847624
3 12
    -0.024229620598312    -0.038539123943702     0.012769061378658
    -0.054629860063829    -0.086955997403240     0.007348257874090
     0.050050750263605     0.082741851035434    -0.103719627077295
3 13
    -0.185498692816808     0.103334493090964     0.069239515742852
    -0.241211785786365     0.286247369153427     0.147589898634289
     0.126630391651610    -0.143200571718928    -0.220446159341340
3 14
   -26.610436413735677   -14.102460603802745    19.495493671381663
   -13.815142665052948   -17.486524404795620    16.069798691272130
    18.230030370334692    15.514599104072207   -31.060922702058381
3 15
    -0.106292181096414     0.078945785421442     0.033593578998921
    -0.158219579253786     0.211648023263050     0.077838606404945
     0.138473727946902    -0.174455218081701    -0.101451921220589
3 16
     0.663879140439305    -0.559460369905983     0.720189741800285
    -1.025483455783681     0.491065534219828     1.845355020849104
     1.991481994020770     2.115428967308839    -2.106623265610485
3 17
    -0.041454610343222    -0.014296407036567     0.026979950440460
     0.066527343053655     0.121072524565474    -0.008290162757941
     0.076172591457875     0.034480476215169    -0.020708602362222
3 18
    -0.141151295184033    -0.194499901975678    -0.212728966842726
     0.116162123411677    -0.461380494121707     0.148382058386626
    -0.018378362452544     0.442324282569208    -0.072888140714044
3 19
     0.046371153658240     0.018068445964038    -0.022648340004778
     0.031143257894551     0.008054715081141    -0.060259005564079
    -0.039677244390312    -0.036398928877099     0.172299758293509
3 20
    -0.097208334166515     0.081952949581059     0.073844650724944
     0.047548063479445     0.216972188882717    -0.262984760923325
     0.544485721606941    -0.296714642706266     0.773395969496420
3 21
    -0.086241428225042    -0.046239291413358     0.293393470349906
     0.047069936797353    -0.538153558342254     0.316739161225632
     0.199448387518981     0.409893594595164    -1.498310601763570
3 22
    -0.004043127590499     0.079497470159955    -0.042565302321444
     0.012487466169772     0.200818837922143     0.004468350385798
    -0.050400376306138    -0.259807930727253     0.052558825808338
3 23
     0.017067890461040    -0.006295243806337    -0.005580559723806
    -0.053624066326652     0.001737561872406    -0.040395801133824
     0.026337772644087    -0.028514569188680     0.011937324051568
3 24
     0.137946866908828    -0.025185426788645     0.080664065045408
    -0.193090352429981     0.086702523319553    -0.225061954504143
     0.097150169488509     0.031016895736867    -0.066199682466877
3 25
     0.028840215970074     0.024372000571451     0.020923485400471
     0.002848845151725     0.006596651981321     0.005880643797458
    -0.020378569547683     0.002401600844540    -0.020287627341089
3 26
     0.120923224730338     0.096851229189704    -0.004178545813838
     0.107852749106590     0.034488154540618     0.026344905046680
     0.039832505994009     0.033647953334441    -0.122059730811160
3 27
     0.023576938809183     0.030502898587782     0.033298879850958
     0.047608158533019     0.069606140601078     0.111698217352955
    -0.023272933894858    -0.032410905330718    -0.056608708096792
3 28
     1.045387892340782    -0.328189884071096     1.540438250248188
     0.307430357895923    -0.779854102662989     0.612228463699344
    -0.019594895393631     0.266379352910612    -0.909934249361108
3 29
     0.040512223146848     0.019037322349860    -0.032120843216034
     0.154816514740588     0.034602937485201    -0.068403804330718
    -0.132247284131026    -0.019220847925798     0.089747169019794
3 30
     0.028453919579164    -0.029012048444301    -0.191733007621525
     0.098258124931217    -0.117818105265237    -0.091478213370652
    -0.370695767282231     0.263025672181211     0.349303048716988
3 31
    -0.075146622076032    -0.029148096873219    -0.057487608038183
     0.007844983890978     0.063024550727682     0.035294440182426
     0.043739903915691     0.161796047995001     0.182122273742139
3 32
     0.002472133791020    -0.001530968170421    -0.000407091945096
    -0.004501560281632    -0.036278497369556     0.022076170369780
     0.020534219584667     0.077621813125111     0.053326456393878
4 1
    -8.232197283685387     4.142675586841422     2.444268764084015
     4.263649528650200     1.081771609873873    -0.546246338603916
     2.898719547246444    -0.741876314177928     3.125826401964900
4 2
     0.079038404148526     0.093368625580673    -0.007494851088212
    -0.083808939460925    -0.198674970083327     0.046320846042787
    -0.044063746086580    -0.065891863508193     0.074440356365914
4 3
     0.086310912041373     0.110253733669166    -0.078517331804559
    -0.110253733716591    -0.185595309438832     0.168705384697707
    -0.078517334389302    -0.168705386206704     0.180952289750834
4 4
    33.422748621523972   -19.262131038421426   -24.223889718494213
   -19.262131030407488    17.398335585116488    19.862827328746747
   -24.223889105474484    19.862827373138103    34.999509586433611
4 5
     0.139519061648364     0.036823407998947     0.110221503054816
     0.174751082349664    -0.177246426546568    -0.643029033937493
     0.437710260606424    -0.678087855841643    -1.608725009604873
4 6
     0.099580592997927     0.190714762527385     0.082143582020019
     0.013244749590854    -0.554333731934256    -0.338672246502886
    -0.011147390416629    -0.442396100396457    -0.171216716762071
4 7
     0.039720532431162    -0.065261679899579     0.025543287393477
     0.112201607477551     0.234440547816202     0.098339359012094
     0.056045529458110     0.218569224423700    -0.243712671180876
4 8
     0.045075963570325    -0.034390267073770     0.024646390357783
     0.079310300307787    -0.232084041663138     0.010083405824823
    -0.032893796901662     0.075855407611814    -0.124486523815254
4 9
    -0.033404638903049     0.022429454694554     0.021577288751414
     0.077479362496427    -0.045927818436394    -0.043837645470284
     0.040935767400057    -0.015415971288819    -0.111842775504149
4 10
     0.106983739316689     0.003272936127622     0.038359591536413
     0.059126652778167     0.078149635445871    -0.035854360103428
    -0.382145971435870     0.274214372190287    -1.071161854851813
4 11
    -0.024229620598312     0.038539123943702     0.012769061378658
     0.054629860063829    -0.086955997403240    -0.007348257874090
     0.050050750263605    -0.082741851035434    -0.103719627077295
4 12
    -0.553746224252335    -0.085013362506792    -0.336639235417608
     0.174544661394768     0.263852327249574     0.096449432190867
     0.359917235117140     0.126840182889514    -0.310960547847624
4 13
   -26.610436413735677    14.102460603802745    19.495493671381663
    13.815142665052948   -17.486524404795620   -16.069798691272130
    18.230030370334692   -15.514599104072207   -31.060922702058381
4 14
    -0.185498692816808    -0.103334493090964     0.069239515742852
     0.241211785786365     0.286247369153427    -0.147589898634289
     0.126630391651610     0.143200571718928    -0.220446159341340
4 15
     0.663879140439305     0.559460369905983     0.720189741800285
     1.025483455783681     0.491065534219828    -1.845355020849104
     1.991481994020770    -2.115428967308839    -2.106623265610485
4 16
    -0.106292181096414    -0.078945785421442     0.033593578998921
     0.158219579253786     0.211648023263050    -0.077838606404945
     0.138473727946902     0.174455218081701    -0.101451921220589
4 17
    -0.141151295184033     0.194499901975678    -0.212728966842726
    -0.116162123411677    -0.461380494121707    -0.148382058386626
    -0.018378362452544    -0.442324282569208    -0.072888140714044
4 18
    -0.041454610343222     0.014296407036567     0.026979950440460
    -0.066527343053655     0.121072524565474     0.008290162757941
     0.076172591457875    -0.034480476215169    -0.020708602362222
4 19
    -0.097208334166515    -0.081952949581059     0.073844650724944
    -0.047548063479445     0.216972188882717     0.262984760923325
     0.544485721606941     0.296714642706266     0.773395969496420
4 20
     0.046371153658240    -0.018068445964038    -0.022648340004778
    -0.031143257894551     0.008054715081141     0.060259005564079
    -0.039677244390312     0.036398928877099     0.172299758293509
4 21
    -0.004043127590499    -0.079497470159955    -0.042565302321444
    -0.012487466169772     0.200818837922143    -0.004468350385798
    -0.050400376306138     0.259807930727253     0.052558825808338
4 22
    -0.086241428225042     0.046239291413358     0.293393470349906
    -0.047069936797353    -0.538153558342254    -0.316739161225632
     0.199448387518981    -0.409893594595164    -1.498310601763570
4 23
     0.137946866908828     0.025185426788645     0.080664065045408
     0.193090352429981     0.086702523319553     0.225061954504143
     0.097150169488509    -0.031016895736867    -0.066199682466877
4 24
     0.017067890461040     0.006295243806337    -0.005580559723806
     0.053624066326652     0.001737561872406     0.040395801133824
     0.026337772644087     0.028514569188680     0.011937324051568
4 25
     0.120923224730338    -0.096851229189704    -0.004178545813838
    -0.107852749106590     0.034488154540618    -0.026344905046680
     0.039832505994009    -0.033647953334441    -0.122059730811160
4 26
     0.028840215970074    -0.024372000571451     0.020923485400471
    -0.002848845151725     0.006596651981321    -0.005880643797458
    -0.020378569547683    -0.002401600844540    -0.020287627341089
4 27
     1.045387892340782     0.328189884071096     1.540438250248188
    -0.307430357895923    -0.779854102662989    -0.612228463699344
    -0.019594895393631    -0.266379352910612    -0.909934249361108
4 28
     0.023576938809183    -0.030502898587782     0.033298879850958
    -0.047608158533019     0.069606140601078    -0.111698217352955
    -0.023272933894858     0.032410905330718    -0.056608708096792
4 29
     0.028453919579164     0.029012048444301    -0.191733007621525
    -0.098258124931217    -0.117818105265237     0.091478213370652
    -0.370695767282231    -0.263025672181211     0.349303048716988
4 30
     0.040512223146848    -0.019037322349860    -0.032120843216034
    -0.154816514740588     0.034602937485201     0.068403804330718
    -0.132247284131026     0.019220847925798     0.089747169019794
4 31
     0.002472133791020     0.001530968170421    -0.000407091945096
     0.004501560281632    -0.036278497369556    -0.022076170369780
     0.020534219584667    -0.077621813125111     0.053326456393878
4 32
    -0.075146622076032     0.029148096873219    -0.057487608038183
    -0.007844983890978     0.063024550727682    -0.035294440182426
     0.043739903915691    -0.161796047995001     0.182122273742139
5 1
     0.286470852743778    -0.274117781416842    -0.221498029705756
    -0.120012369644182     0.108103734242089     0.109081879984570
    -0.069327756014971    -0.088063720019783    -0.488451508543504
5 2
     0.046357580683611     0.040429602533591    -0.007226518246077
    -0.196625534698724    -0.131493625087838    -0.009128555700894
     0.068316526534847     0.000621366182681     0.021533403542559
5 3
     0.099580558597981    -0.013244854457885    -0.011147340612020
    -0.190714924115328    -0.554333982483012     0.442395793215467
     0.082143426054153     0.338672045340476    -0.171216647722393
5 4
     0.139519003222092     0.174751094619520     0.437710268052378
     0.036823281068265    -0.177246374609187    -0.678087834984779
     0.110221523008731    -0.643029038436086    -1.608725011838461
5 5
    41.001071970710342     8.058847303441786   -17.965784088280131
     8.058847260720535    35.595850661414531     1.162176765343345
   -17.965784157747262     1.162176134421701    17.468612350690055
5 6
     0.013298503645523     0.041236157290604     0.007071167727901
    -0.041236092191451    -0.185526503341212     0.053162307114442
     0.007071120259554    -0.053162295412016    -0.072855154046024
5 7
     0.253098128943971    -0.129013417844608    -0.192928438780239
    -0.016882544721417    -0.046372090555394    -0.015752848558996
    -0.086479949513249     0.043960365842977     0.161397463631377
5 8
    -0.185893237113703     0.202952004659995     0.278462205238479
     0.154818468248905     0.078402812832511    -0.186502184334616
     0.245013519117912    -0.230315683102621    -0.279054050689009
5 9
    -0.120366394771138     0.040392391926355    -0.017613758757751
    -0.013309045757721    -0.389653008012983    -0.106144767092212
    -0.049718418218631    -0.068382096339183     0.016290739436986
5 10
    -2.396756654168866    -1.330230036177946     0.688026534958228
    -0.723451392648797     0.201382410600984     0.295809246950637
     1.552653755396562     0.855995247189642    -0.204335209192821
5 11
    -0.177843453512827     0.173748287879477     0.061394461990935
     0.141584547860608    -0.170872603128765    -0.122741306332303
     0.022872282154887    -0.035627755882841     0.110591004568041
5 12
    -0.627215705087999    -0.198249405902039     0.110300508679158
    -0.127556770340626    -0.156845442793203     0.332887349635439
     0.023464638573687     0.370017452510789    -0.289212763864463
5 13
    -0.477711365973539     0.299627989551881     0.067972552450652
     1.469293301518638    -0.805568525640449    -0.926845958380531
     2.558013421819107    -1.915674861201300    -1.273840977793542
5 14
    -0.057913064829392    -0.009002755106511    -0.037008611720974
     0.379677769650826     0.182104917023757    -0.160019546125229
    -0.117147228473716    -0.054804145528153     0.150031536668971
5 15
   -13.950245556787630     4.998310768939795     6.271459253646301
     2.085388492816958   -11.960795794118166    -3.141286423818656
     5.201427538689751    -4.375243240055391    -9.581452984132179
5 16
    -0.041198200723931    -0.007847780687712     0.004823578024280
     0.052778099558791     0.107435658849529    -0.037735336828021
     0.022883359858368     0.009249135129866     0.003191841905352
5 17
    -2.365498086852108     1.917685544994220     0.977344634704620
     3.311372971854321    -2.495372636560641    -1.661442969617441
    -0.064052556334136     0.029994375802776     0.792143943791473
5 18
     0.120432148613720    -0.108974610715191     0.037489088391591
     0.033044878884222     0.029793358216252     0.002513174618308