# epsilon and Z* of atoms 1 3 5 9 11 15 17 19 23
   5.12982409   -0.00000000   -0.00000000   -0.00000000    3.08912518   -0.00000000   -0.00000000   -0.00000000    3.59041415 
  -0.46281972   -0.50890775    0.00000000    0.03945479    1.16787865    0.00000000    0.00000000    0.00000000    0.63890618 
  -0.68392885    0.27833822    0.00000000    0.00533296   -1.42575803    0.00000000    0.00000000    0.00000000   -1.20146964 
   0.46767684    0.33399164   -0.27459746    0.09279553   -0.47913068    0.18027531   -0.36466104    0.09546730   -0.39663023 
  -0.22197698    0.00000000    0.00000000    0.00000000    0.24296255   -0.18206746    0.00000000   -0.22746177    0.37229216 
   0.08810091   -0.04258700    0.11162985   -0.06622997    0.19051785   -0.07634337    0.04537438    0.03035050    0.04625797 
  -0.30031223    0.00000000    0.00000000    0.00000000   -0.02924519   -0.00250860    0.00000000   -0.04883264    0.09460757 
   0.16385727    0.00000000    0.00000000    0.00000000    0.12724414    0.03958179    0.00000000    0.02900396    0.06166481 
   0.08325912   -0.00475992    0.06938527   -0.00930642    0.14722292   -0.06988839    0.01627337   -0.08647428    0.32387737 
   0.22608915    0.00000000    0.00000000    0.00000000    0.12005849    0.03779031    0.00000000    0.06289868    0.08642425 