  24  192
1 1
     6.586065412499139     0.126417221761194     0.000000000000000
     0.126417062270731     3.206949811673266     0.000000000000000
     0.000000000000000     0.000000000000000     4.853369564975558
1 2
    -0.005830973778052    -0.005606040576432     0.000000000000000
    -0.005606544241241    -0.005999099045200     0.000000000000000
     0.000000000000000     0.000000000000000     0.007427340187965
1 3
    -0.001405279847671     0.007929023238837     0.000000000000000
     0.007929147918638    -0.625156953185047    -0.000000000000000
     0.000000000000000     0.000000000000000     0.268285218955238
1 4
    -0.004631237129140    -0.004202496718087     0.000000000000000
    -0.004202688876776    -0.004341897955193     0.000000000000000
     0.000000000000000    -0.000000000000000     0.003005041662599
1 5
     0.001585032536688     0.002406856280765     0.000000000000000
     0.002406558440579     0.000556344878771     0.000000000000000
     0.000000000000000     0.000000000000000     0.001065514744778
1 6
    -0.002208488201373    -0.002494135230071     0.000000000000000
    -0.002494147990200    -0.002688576555415     0.000000000000000
     0.000000000000000     0.000000000000000     0.000137263698422
1 7
     0.001934032073891     0.002003903049194     0.000000000000000
     0.002003505953098     0.009416483279547    -0.000000000000000
     0.000000000000000    -0.000000000000000    -0.015694784397576
1 8
    -0.002238574376785    -0.002983463415298     0.000000000000000
    -0.002983590628925    -0.003488309306079     0.000000000000000
     0.000000000000000     0.000000000000000     0.000118064213820
1 9
    -0.007529729944757     0.008554430990255     0.007925088589679
    -0.008554430990255     0.015676283083193     0.018403455854672
    -0.007925088589679     0.018403455854672     0.028866463013176
1 10
    -0.007529729944757     0.008554430990255    -0.007925088589679
    -0.008554430990255     0.015676283083193    -0.018403455854672
     0.007925088589679    -0.018403455854672     0.028866463013176
1 11
    -0.000256005300664     0.001149118005950    -0.000051992881200
    -0.001149118005950    -0.002265006106053    -0.004088114865675
     0.000051992881200    -0.004088114865675    -0.006415095914358
1 12
    -0.000256005300664     0.001149118005950     0.000051992881200
    -0.001149118005950    -0.002265006106053     0.004088114865675
    -0.000051992881200     0.004088114865675    -0.006415095914358
1 13
     0.000700562573191    -0.002239623965763    -0.007717579264035
     0.002239623965763    -0.003637907573668    -0.007719117672788
     0.007717579264035    -0.007719117672788    -0.005992217897582
1 14
     0.000700562573191    -0.002239623965763     0.007717579264035
     0.002239623965763    -0.003637907573668     0.007719117672788
    -0.007717579264035     0.007719117672788    -0.005992217897582
1 15
    -0.000891915477391     0.003023859417138    -0.007821460498015
    -0.003023859417138     0.005230025509375    -0.003094132991118
     0.007821460498015    -0.003094132991118    -0.007073091787620
1 16
    -0.000891915477391     0.003023859417138     0.007821460498015
    -0.003023859417138     0.005230025509375     0.003094132991118
    -0.007821460498015     0.003094132991118    -0.007073091787620
1 17
     0.228455656566296     0.037097034718448     0.029008792995982
     0.053308148034201    -1.141342172014799    -1.002749353601526
    -0.014927837496173    -1.056752928089515    -0.889414863470307
1 18
    -0.004797368939705     0.002485495690580     0.000307380643058
    -0.005588919747435     0.002629974503923     0.000447637678139
    -0.000187143165655    -0.001911529867140    -0.004851289765085
1 19
     0.228455656566296     0.037097034718448    -0.029008792995982
     0.053308148034201    -1.141342172014799     1.002749353601526
     0.014927837496173     1.056752928089515    -0.889414863470307
1 20
    -0.004797368939705     0.002485495690580    -0.000307380643058
    -0.005588919747435     0.002629974503923    -0.000447637678139
     0.000187143165655     0.001911529867140    -0.004851289765085
1 21
     0.012189106597832     0.001182241898101    -0.002612578815789
     0.016796958423300    -0.002669418052489     0.001574507177321
     0.006839982724015    -0.013872875890969     0.043156054262056
1 22
    -0.004962397799943     0.001644594100643    -0.000313954402564
    -0.005345007607611     0.001863443654062    -0.000464077078772
     0.000353183322623    -0.000611203928793     0.004777479235010
1 23
     0.012189106597832     0.001182241898101     0.002612578815789
     0.016796958423300    -0.002669418052489    -0.001574507177321
    -0.006839982724015     0.013872875890969     0.043156054262056
1 24
    -0.004962397799943     0.001644594100643     0.000313954402564
    -0.005345007607611     0.001863443654062     0.000464077078772
    -0.000353183322623     0.000611203928793     0.004777479235010
1 25
     0.002301700740725    -0.006591031670477    -0.008154763877496
     0.001414361414207    -0.011170952098312    -0.013785734498312
     0.006208580543321    -0.016597098529718    -0.020201531965636
1 26
     0.000806960174288     0.001054461516672     0.004720298374009
    -0.010265700689273     0.004401250972475     0.005083238609285
     0.000617603893056    -0.012170416198582    -0.015466543130204
1 27
     0.000806960174288     0.001054461516672    -0.004720298374009
    -0.010265700689273     0.004401250972475    -0.005083238609285
    -0.000617603893056     0.012170416198582    -0.015466543130204
1 28
     0.002301700740725    -0.006591031670477     0.008154763877496
     0.001414361414207    -0.011170952098312     0.013785734498312
    -0.006208580543321     0.016597098529718    -0.020201531965636
1 29
    -0.005524389375728    -0.006446866495033     0.020034989194960
    -0.007491694864172    -0.001677076827988     0.014904870731739
    -0.004138565416189    -0.001586987399958     0.017286417630370
1 30
    -0.003867452006212     0.004315069582047    -0.011015102495557
    -0.002801428810105    -0.000485602867690    -0.006685677689424
    -0.002471070282228    -0.005544475983207     0.010372417492907
1 31
    -0.003867452006212     0.004315069582047     0.011015102495557
    -0.002801428810105    -0.000485602867690     0.006685677689424
     0.002471070282228     0.005544475983207     0.010372417492907
1 32
    -0.005524389375728    -0.006446866495033    -0.020034989194960
    -0.007491694864172    -0.001677076827988    -0.014904870731739
     0.004138565416189     0.001586987399958     0.017286417630370
1 33
    -1.798027100584639    -0.089380318257549     1.098169739055139
     0.169456530240899    -0.413776073992812     0.011987419379705
     1.249421565354361     0.301662876307105    -1.091378109926882
1 34
     0.004854726947234     0.003167688165366    -0.002428518545061
     0.004588222536538     0.004110878248139    -0.002420178005058
     0.002855402987445    -0.002234662410457    -0.002543874993874
1 35
    -0.014863524081573     0.012937105200154    -0.004036270972322
    -0.014761232011171     0.067909542234946     0.012752296736506
    -0.042966684409015    -0.018347202967187    -0.030680920151737
1 36
     0.004617032998810     0.002284546913186    -0.002523537558361
     0.004618635359730     0.002856388655307    -0.003190524201745
    -0.000532350126797    -0.000079845827632     0.000865328851061
1 37
    -0.001507156231994    -0.003193816325689     0.004596996069495
     0.020574893407194    -0.014381785018274     0.018703473782218
     0.026729843126980     0.000319628059792     0.014773865794389
1 38
     0.002632062836219     0.001735060491342    -0.001923302530199
     0.003066379897854     0.001506523758606    -0.001889461943198
    -0.000449468711134     0.000761503653596     0.000740189531569
1 39
    -0.004584950580452    -0.001431088201703     0.002892356975648
    -0.040897192531515     0.013474239631518    -0.024794538240525
     0.026725333441519     0.001739795676804     0.007735297779695
1 40
     0.002761863983678     0.001791935316703    -0.001582482471053
     0.003068977795290     0.002064545402498    -0.001498541292644
    -0.000582399631384     0.000946128931410     0.000328867777413
1 41
    -1.798027100584639    -0.089380318257549    -1.098169739055139
     0.169456530240899    -0.413776073992812    -0.011987419379705
    -1.249421565354361    -0.301662876307105    -1.091378109926881
1 42
     0.004854726947235     0.003167688165366     0.002428518545061
     0.004588222536538     0.004110878248139     0.002420178005058
    -0.002855402987445     0.002234662410457    -0.002543874993874
1 43
    -0.014863524081573     0.012937105200154     0.004036270972322
    -0.014761232011171     0.067909542234946    -0.012752296736506
     0.042966684409016     0.018347202967187    -0.030680920151737
1 44
     0.004617032998810     0.002284546913186     0.002523537558361
     0.004618635359730     0.002856388655307     0.003190524201745
     0.000532350126797     0.000079845827632     0.000865328851061
1 45
    -0.001507156231994    -0.003193816325689    -0.004596996069495
     0.020574893407194    -0.014381785018274    -0.018703473782218
    -0.026729843126980    -0.000319628059792     0.014773865794389
1 46
     0.002632062836219     0.001735060491342     0.001923302530199
     0.003066379897854     0.001506523758606     0.001889461943198
     0.000449468711134    -0.000761503653596     0.000740189531569
1 47
    -0.004584950580452    -0.001431088201703    -0.002892356975648
    -0.040897192531515     0.013474239631518     0.024794538240525
    -0.026725333441519    -0.001739795676804     0.007735297779695
1 48
     0.002761863983678     0.001791935316703     0.001582482471053
     0.003068977795290     0.002064545402499     0.001498541292644
     0.000582399631384    -0.000946128931410     0.000328867777413
1 49
     0.509040207263519     0.027708727162371    -0.149594223750818
     0.070561143235168     0.062563572769059     0.014033581888959
    -0.282028313406924    -0.049744171027025    -0.041271040517718
1 50
     0.010959498940243    -0.005041429648008     0.007568950426347
     0.012045209969788    -0.005930557743208     0.009645489686858
    -0.007767769008317     0.005700039613714    -0.013499003676477
1 51
     0.008748363968760     0.006982644893553    -0.000064364010011
     0.018576562394256     0.002313120761844    -0.008294496099643
     0.015855662802516     0.024128500241205    -0.017340176868577
1 52
     0.000838118714852    -0.001856985876961     0.000707286653758
     0.002142034964811    -0.001634676768782     0.000108866652337
     0.000088615592007    -0.001053919035156     0.002489626898549
1 53
     0.000208231503127     0.001465620573567     0.002696949447967
     0.001769612923285    -0.002484954717219     0.008547685130610
    -0.005075413915233    -0.000487203742569     0.006490669451751
1 54
     0.000731011992423    -0.000482005103715    -0.001648350214478
    -0.001057110220674    -0.000181932827872    -0.002229591024686
     0.005714892119542    -0.002395673768584     0.004413420515804
1 55
    -0.001018332685748    -0.000449449708070     0.003652048850760
     0.000577978857464     0.003103246333384    -0.006133845433581
    -0.008157914445232    -0.002303434138548     0.004687836310362
1 56
     0.000502554975499    -0.001920827502356    -0.002103864077733
     0.001894893594522    -0.002402131105822     0.000271811256161
     0.006413345944033    -0.001286889732874     0.004490067530426
1 57
     0.509040207263519     0.027708727162371     0.149594223750818
     0.070561143235168     0.062563572769059    -0.014033581888959
     0.282028313406924     0.049744171027025    -0.041271040517718
1 58
     0.010959498940243    -0.005041429648008    -0.007568950426347
     0.012045209969788    -0.005930557743208    -0.009645489686858
     0.007767769008317    -0.005700039613714    -0.013499003676477
1 59
     0.008748363968760     0.006982644893553     0.000064364010011
     0.018576562394256     0.002313120761844     0.008294496099643
    -0.015855662802516    -0.024128500241205    -0.017340176868577
1 60
     0.000838118714852    -0.001856985876961    -0.000707286653758
     0.002142034964811    -0.001634676768782    -0.000108866652337
    -0.000088615592007     0.001053919035156     0.002489626898549
1 61
     0.000208231503127     0.001465620573567    -0.002696949447967
     0.001769612923285    -0.002484954717219    -0.008547685130610
     0.005075413915233     0.000487203742569     0.006490669451751
1 62
     0.000731011992423    -0.000482005103715     0.001648350214478
    -0.001057110220674    -0.000181932827872     0.002229591024686
    -0.005714892119542     0.002395673768584     0.004413420515804
1 63
    -0.001018332685748    -0.000449449708070    -0.003652048850760
     0.000577978857464     0.003103246333384     0.006133845433581
     0.008157914445232     0.002303434138548     0.004687836310362
1 64
     0.000502554975499    -0.001920827502356     0.002103864077733
     0.001894893594522    -0.002402131105822    -0.000271811256161
    -0.006413345944033     0.001286889732874     0.004490067530426
1 65
    -1.980626761051662     0.365973198225469    -0.238925677522232
    -0.045019129957141     0.196065721718796    -0.110092839145399
     0.507013641169995    -0.272380139577527     0.541923452260068
1 66
    -0.002209144048168     0.000775627002381    -0.002324080325164
    -0.003451714158398     0.000262785016642    -0.002726282117654
     0.002719063590113    -0.000279608584644     0.006894941393090
1 67
    -0.009385564503319    -0.008272611633908     0.013363587606426
    -0.005517993299740    -0.008436477199812     0.043960840109467
    -0.014742768475908    -0.018178180803317     0.024390526043844
1 68
    -0.001298119344493     0.001019776260755    -0.000386398894409
    -0.001204467476265     0.000663644898921     0.000273038252653
    -0.000749631300201    -0.001112341814065     0.000206676080967
1 69
    -0.000227298316160     0.002921652933732    -0.006081665841392
     0.004331017480911     0.002515933808334     0.001638472167379
     0.003417657069615     0.003771220989716    -0.010403247888288
1 70
    -0.000658777652035    -0.000538884318534     0.001669115559867
    -0.000719761491793    -0.000365333560006     0.001932349627361
    -0.000783892719834     0.000818330644483    -0.002863893247467
1 71
     0.000069260416335     0.002127145529489    -0.004731400041550
    -0.003432252799323     0.004749254737848    -0.015048062069344
     0.007176937636786     0.002803983398560    -0.006147348964966
1 72
    -0.000729647981028    -0.000342419624570     0.001063676765041
    -0.001386014440821    -0.000365794498271     0.000606215426108
    -0.000872011889714     0.000542632703295    -0.002131898762901
1 73
    -1.980626761051662     0.365973198225469     0.238925677522232
    -0.045019129957141     0.196065721718796     0.110092839145399
    -0.507013641169995     0.272380139577527     0.541923452260068
1 74
    -0.002209144048168     0.000775627002381     0.002324080325164
    -0.003451714158398     0.000262785016642     0.002726282117654
    -0.002719063590113     0.000279608584644     0.006894941393090
1 75
    -0.009385564503319    -0.008272611633908    -0.013363587606426
    -0.005517993299740    -0.008436477199812    -0.043960840109467
     0.014742768475908     0.018178180803317     0.024390526043844
1 76
    -0.001298119344493     0.001019776260755     0.000386398894409
    -0.001204467476265     0.000663644898921    -0.000273038252653
     0.000749631300201     0.001112341814065     0.000206676080967
1 77
    -0.000227298316160     0.002921652933732     0.006081665841392
     0.004331017480911     0.002515933808334    -0.001638472167379
    -0.003417657069615    -0.003771220989716    -0.010403247888288
1 78
    -0.000658777652035    -0.000538884318534    -0.001669115559867
    -0.000719761491793    -0.000365333560006    -0.001932349627361
     0.000783892719834    -0.000818330644483    -0.002863893247467
1 79
     0.000069260416335     0.002127145529489     0.004731400041550
    -0.003432252799323     0.004749254737848     0.015048062069344
    -0.007176937636786    -0.002803983398560    -0.006147348964966
1 80
    -0.000729647981028    -0.000342419624570    -0.001063676765041
    -0.001386014440821    -0.000365794498271    -0.000606215426108
     0.000872011889714    -0.000542632703295    -0.002131898762902
1 81
    -0.100046416818010    -0.459604241527510     1.360842821994115
    -0.274925574998018    -0.010498569191888     0.368557099815708
     0.484514066967659     0.351410845261712    -1.005867460522384
1 82
    -0.000649737586776    -0.000381950460275    -0.000576631206447
    -0.002052028570350    -0.000273188149678    -0.000000597404831
     0.005018464915073    -0.000628112926465     0.001828283318338
1 83
     0.004407056477624    -0.022051371838926    -0.000634695023310
    -0.003927292538169     0.024607250790310    -0.021017145809792
     0.028922998776418    -0.001103970700317    -0.002769280405543
1 84
     0.001937858871061    -0.000143699866393     0.001172816085015
     0.001514142671514    -0.000407814952761     0.001600871748338
    -0.000434454022637     0.000126913414434    -0.000800470546853
1 85
    -0.000570437232479     0.002353882357550     0.001350672476813
    -0.030894729699189    -0.003095783843028     0.001595843166555
    -0.033465865963031     0.009599683116112     0.004943186112345
1 86
     0.001276301661725    -0.000304281094907     0.000957890228533
     0.002393716370859    -0.000396810030222     0.001236204679561
    -0.002140615552122     0.000393163563011    -0.000759566337228
1 87
     0.002315139024865    -0.002989258235220    -0.002878743265403
     0.031097421327633     0.004892828161677    -0.020313051466506
    -0.031167994981883     0.003632419218131     0.010584466805042
1 88
     0.001100190254756    -0.000224236386852     0.000764227209135
     0.001125781967960    -0.000247178795205     0.000572082033879
    -0.002046809206311     0.000260687718807    -0.000492013373641
1 89
    -0.100046416818010    -0.459604241527510    -1.360842821994115
    -0.274925574998018    -0.010498569191888    -0.368557099815708
    -0.484514066967659    -0.351410845261712    -1.005867460522384
1 90
    -0.000649737586776    -0.000381950460275     0.000576631206446
    -0.002052028570350    -0.000273188149678     0.000000597404831
    -0.005018464915073     0.000628112926465     0.001828283318337
1 91
     0.004407056477624    -0.022051371838926     0.000634695023310
    -0.003927292538169     0.024607250790310     0.021017145809792
    -0.028922998776418     0.001103970700317    -0.002769280405543
1 92
     0.001937858871061    -0.000143699866393    -0.001172816085015
     0.001514142671514    -0.000407814952761    -0.001600871748338
     0.000434454022637    -0.000126913414434    -0.000800470546853
1 93
    -0.000570437232479     0.002353882357550    -0.001350672476813
    -0.030894729699189    -0.003095783843028    -0.001595843166555
     0.033465865963031    -0.009599683116112     0.004943186112345
1 94
     0.001276301661725    -0.000304281094907    -0.000957890228533
     0.002393716370859    -0.000396810030222    -0.001236204679561
     0.002140615552122    -0.000393163563011    -0.000759566337228
1 95
     0.002315139024865    -0.002989258235220     0.002878743265403
     0.031097421327633     0.004892828161677     0.020313051466506
     0.031167994981883    -0.003632419218131     0.010584466805042
1 96
     0.001100190254756    -0.000224236386852    -0.000764227209135
     0.001125781967960    -0.000247178795205    -0.000572082033879
     0.002046809206311    -0.000260687718807    -0.000492013373641
1 97
    -0.388503359718893    -0.095021513419783     0.178138368850722
    -0.084603632418126    -0.026768084543212     0.037165110439928
     0.118819065947953    -0.002424929954333    -0.042635894539406
1 98
     0.005260893168667     0.005833567963608    -0.008563526893833
     0.001887966375349     0.002858343114500    -0.004561771034742
    -0.001012449746563    -0.001787449772669     0.003027643709754
1 99
     0.007826295949947    -0.002083279833806    -0.006581339083368
     0.012839186467950     0.007587925786557    -0.017979965466600
     0.033416935568549    -0.008503615206540    -0.001823443681133
1 100
     0.005051471204213    -0.000204019003016    -0.002868111984106
     0.002062073711260    -0.000133207644510    -0.001305869493957
    -0.000176465947010     0.000491204799154    -0.001298580142497
1 101
    -0.000832300532785    -0.000426373641193     0.001604930458607
    -0.009825279828163    -0.001981397581752     0.004438283512838
    -0.021693582673345    -0.002459665948608     0.001711203884347
1 102
    -0.000759986922934    -0.000479738877523     0.000684646813623
     0.000259581522564    -0.000753274267546     0.000842371204984
     0.001162625417428     0.001153474475877    -0.001938481682007
1 103
     0.000560468654907     0.001044882635965    -0.001617237698778
     0.012415968749886     0.000921563121027    -0.001377634884227
    -0.022852064751444    -0.001624504946313     0.001624278830382
1 104
    -0.000607459019430    -0.000363894885447     0.000690601213800
     0.000130727840226    -0.000021787871302     0.000210979615754
     0.000777853734299     0.001148494868924    -0.002301723534733
1 105
    -0.388503359718893    -0.095021513419783    -0.178138368850722
    -0.084603632418126    -0.026768084543212    -0.037165110439928
    -0.118819065947953     0.002424929954333    -0.042635894539406
1 106
     0.005260893168667     0.005833567963608     0.008563526893833
     0.001887966375349     0.002858343114500     0.004561771034742
     0.001012449746563     0.001787449772669     0.003027643709754
1 107
     0.007826295949947    -0.002083279833806     0.006581339083368
     0.012839186467950     0.007587925786557     0.017979965466600
    -0.033416935568549     0.008503615206540    -0.001823443681133
1 108
     0.005051471204213    -0.000204019003016     0.002868111984106
     0.002062073711260    -0.000133207644510     0.001305869493957
     0.000176465947010    -0.000491204799154    -0.001298580142497
1 109
    -0.000832300532785    -0.000426373641193    -0.001604930458607
    -0.009825279828163    -0.001981397581752    -0.004438283512838
     0.021693582673345     0.002459665948608     0.001711203884347
1 110
    -0.000759986922934    -0.000479738877523    -0.000684646813623
     0.000259581522564    -0.000753274267546    -0.000842371204984
    -0.001162625417428    -0.001153474475877    -0.001938481682007
1 111
     0.000560468654907     0.001044882635965     0.001617237698778
     0.012415968749886     0.000921563121027     0.001377634884227
     0.022852064751444     0.001624504946313     0.001624278830382
1 112
    -0.000607459019430    -0.000363894885447    -0.000690601213800
     0.000130727840226    -0.000021787871302    -0.000210979615754
    -0.000777853734299    -0.001148494868924    -0.002301723534733
1 113
     0.279180994712599     0.104444234394403    -0.263512654610301
     0.052753556881522    -0.016054718289632     0.016063270995679
    -0.105059279842392    -0.006402500088040     0.094763110237132
1 114
    -0.005662983989714    -0.001663519633327     0.003710922016056
    -0.002875620778500    -0.000732446451275     0.001995149636521
    -0.001247176854805     0.000929442147521    -0.001366527244776
1 115
    -0.006464927614864    -0.007165080907811    -0.004552221829648
     0.008420117667021    -0.003543974517165    -0.011077017925111
    -0.015639488869481     0.014902787769078    -0.011301482614416
1 116
    -0.003997877038944    -0.001028606707913     0.001516386811776
    -0.002920012502271    -0.000583501484992     0.000565117292653
    -0.000348319566567     0.000664224338133    -0.000645929677674
1 117
     0.003344817586349     0.000227639002511     0.002139571067949
     0.030816245716409    -0.001542486497437    -0.005459692235752
     0.033603184140751    -0.007594997468139     0.005758083022428
1 118
    -0.001383435287605     0.000498228472880    -0.000946850819867
    -0.002496645330148     0.000473419820027    -0.001118904072198
     0.000012575568065    -0.000955597745276     0.001923975727436
1 119
     0.003414179733951    -0.001688672927967     0.001688254213845
    -0.028322082204343     0.002842494005490     0.009477333582054
     0.029367956450559    -0.005011975173943     0.003391831527308
1 120
    -0.001553528524723     0.000550511686941    -0.000770513266204
    -0.002188450332364     0.000438088549725    -0.000495184573546
     0.000194785490317    -0.000777966235387     0.001450544677994
1 121
     0.279180994712599     0.104444234394403     0.263512654610301
     0.052753556881522    -0.016054718289632    -0.016063270995679
     0.105059279842392     0.006402500088040     0.094763110237132
1 122
    -0.005662983989714    -0.001663519633327    -0.003710922016056
    -0.002875620778500    -0.000732446451275    -0.001995149636521
     0.001247176854805    -0.000929442147521    -0.001366527244776
1 123
    -0.006464927614864    -0.007165080907811     0.004552221829648
     0.008420117667021    -0.003543974517165     0.011077017925111
     0.015639488869481    -0.014902787769078    -0.011301482614416
1 124
    -0.003997877038944    -0.001028606707913    -0.001516386811776
    -0.002920012502271    -0.000583501484992    -0.000565117292653
     0.000348319566567    -0.000664224338133    -0.000645929677674
1 125
     0.003344817586349     0.000227639002511    -0.002139571067949
     0.030816245716409    -0.001542486497437     0.005459692235752
    -0.033603184140751     0.007594997468139     0.005758083022428
1 126
    -0.001383435287605     0.000498228472880     0.000946850819867
    -0.002496645330148     0.000473419820027     0.001118904072198
    -0.000012575568065     0.000955597745276     0.001923975727436
1 127
     0.003414179733951    -0.001688672927967    -0.001688254213845
    -0.028322082204343     0.002842494005490    -0.009477333582054
    -0.029367956450559     0.005011975173943     0.003391831527308
1 128
    -0.001553528524723     0.000550511686941     0.000770513266204
    -0.002188450332364     0.000438088549725     0.000495184573546
    -0.000194785490317     0.000777966235387     0.001450544677994
1 129
    -0.039384155611080     0.019280426685907     0.070972146542658
     0.044068722716372    -0.020248782852097    -0.004996230056555
    -0.070660853312056     0.051603990951342    -0.009780194950934
1 130
     0.000853632098974    -0.000015942261805    -0.000055333277013
     0.001164298083388    -0.000161299985532    -0.000241879012756
    -0.000000375920528     0.000795503630231     0.000694234240513
1 131
    -0.002010803546361    -0.002588553838823    -0.003110513207470
    -0.025722786130797    -0.013929627303102     0.000286253699140
    -0.020947019799074     0.000391406935511     0.004328805127358
1 132
     0.000901684944290     0.000041852886704    -0.000114645259754
     0.001635320812782    -0.000102259709714    -0.000170119831909
    -0.000304431059165     0.000150401188201     0.000510272629117
1 133
    -0.001032805194807    -0.002145227259787    -0.001900856337530
     0.000966438589196    -0.002535881324006    -0.000236869593438
     0.002647048742709    -0.003388105408517    -0.001142414696444
1 134
     0.001387421953145     0.000177227954553     0.000239617230824
     0.001270716158159     0.000249247629007     0.000273568453334
     0.000149688153489    -0.000459864986721    -0.000554838669469
1 135
    -0.001560468792657     0.000028192925756    -0.000873748872020
    -0.004303397232003     0.000524649523231    -0.002777909077447
     0.002529841693947     0.001528966056702    -0.001000644224849
1 136
     0.001188964009026     0.000116689790949     0.000241849428891
     0.001033818585599     0.000086110207004     0.000225804414284
     0.000427506693941    -0.000267541705204    -0.000532204321971
1 137
    -0.039384155611080     0.019280426685907    -0.070972146542658
     0.044068722716372    -0.020248782852097     0.004996230056555
     0.070660853312056    -0.051603990951342    -0.009780194950934
1 138
     0.000853632098974    -0.000015942261805     0.000055333277013
     0.001164298083388    -0.000161299985532     0.000241879012756
     0.000000375920528    -0.000795503630231     0.000694234240513
1 139
    -0.002010803546361    -0.002588553838823     0.003110513207470
    -0.025722786130797    -0.013929627303102    -0.000286253699140
     0.020947019799074    -0.000391406935511     0.004328805127358
1 140
     0.000901684944290     0.000041852886704     0.000114645259754
     0.001635320812782    -0.000102259709714     0.000170119831909
     0.000304431059165    -0.000150401188201     0.000510272629117
1 141
    -0.001032805194807    -0.002145227259787     0.001900856337530
     0.000966438589196    -0.002535881324006     0.000236869593438
    -0.002647048742709     0.003388105408517    -0.001142414696444
1 142
     0.001387421953145     0.000177227954553    -0.000239617230824
     0.001270716158159     0.000249247629007    -0.000273568453334
    -0.000149688153489     0.000459864986721    -0.000554838669469
1 143
    -0.001560468792657     0.000028192925756     0.000873748872020
    -0.004303397232003     0.000524649523231     0.002777909077447
    -0.002529841693947    -0.001528966056702    -0.001000644224849
1 144
     0.001188964009026     0.000116689790949    -0.000241849428891
     0.001033818585599     0.000086110207004    -0.000225804414284
    -0.000427506693941     0.000267541705204    -0.000532204321971
1 145
    -0.067536639864599     0.026515611445800    -0.022627010016097
    -0.035485541089557     0.020633672403045     0.024565428232386
     0.068197801356318    -0.018041152174241    -0.077494307950375
1 146
     0.000432774656028    -0.000089324884965     0.000978143345427